Header
401 atoms
401 bodies
3 atom types
-12.05 12.00 xlo xhi
-12.05 12.00 ylo yhi
-11.82 11.87 zlo zhi

Atoms

1 1 1 18.000000 -8.385671 -1.883032 3.900534 0 0 0
2 1 1 18.000000 -5.935445 -7.147065 8.941869 0 0 0
3 1 1 18.000000 -6.758465 4.665076 0.080653 0 0 0
4 1 1 18.000000 -3.650893 1.752282 9.338102 0 0 0
5 1 1 18.000000 -8.174320 4.281433 -10.724695 0 0 0
6 1 1 18.000000 -5.812725 -4.986160 6.499267 0 0 0
7 1 1 18.000000 4.157813 2.716085 -7.476626 0 0 0
8 1 1 18.000000 -9.312027 -3.165024 -2.384657 0 0 0
9 1 1 18.000000 -8.029808 4.144295 10.126490 0 0 0
10 1 1 18.000000 -1.357232 -3.074263 -6.960523 0 0 0
11 1 1 18.000000 -11.938536 -6.308954 2.589904 0 0 0
12 1 1 18.000000 -2.128062 -2.860190 2.977253 0 0 0
13 1 1 18.000000 -10.369152 -5.371467 -10.078294 0 0 0
14 1 1 18.000000 -7.119541 8.627008 -0.762890 0 0 0
15 1 1 18.000000 2.961733 8.862571 0.810362 0 0 0
16 1 1 18.000000 -10.662841 -8.278665 10.793223 0 0 0
17 1 1 18.000000 -11.515322 3.197181 10.498215 0 0 0
18 1 1 18.000000 -1.565497 -4.338035 -9.569863 0 0 0
19 1 1 18.000000 -7.693028 10.802943 4.273847 0 0 0
20 1 1 18.000000 10.547219 -5.814453 -8.539730 0 0 0
21 1 1 18.000000 -1.076487 -6.623392 -10.918957 0 0 0
22 1 1 18.000000 -3.416976 -7.683283 7.274126 0 0 0
23 1 1 18.000000 -3.660576 5.367175 11.283125 0 0 0
24 1 1 18.000000 -7.740454 5.824395 -4.835361 0 0 0
25 1 1 18.000000 -3.128034 0.926692 -6.713397 0 0 0
26 1 1 18.000000 -9.762976 6.456418 -9.784963 0 0 0
27 1 1 18.000000 1.666480 5.673565 6.655255 0 0 0
28 1 1 18.000000 3.427715 -5.409639 -9.557915 0 0 0
29 1 1 18.000000 -2.103451 0.827253 -1.792858 0 0 0
30 1 1 18.000000 -4.958964 -9.964787 7.877448 0 0 0
31 1 1 18.000000 1.871371 -10.056716 -8.951961 0 0 0
32 1 1 18.000000 -3.238222 -1.438160 -3.172646 0 0 0
33 1 1 18.000000 -2.944099 -0.042471 0.793475 0 0 0
34 1 1 18.000000 -1.742577 -11.307518 -9.919488 0 0 0
35 1 1 18.000000 -7.373749 -3.867875 -4.159782 0 0 0
36 1 1 18.000000 -8.590435 -7.320246 -2.248401 0 0 0
37 1 1 18.000000 -8.734973 -4.516882 7.385553 0 0 0
38 1 1 18.000000 -8.838471 -1.692754 1.113375 0 0 0
39 1 1 18.000000 -9.583697 -6.161830 4.293166 0 0 0
40 1 1 18.000000 -5.634661 10.217028 -9.711410 0 0 0
41 1 1 18.000000 -8.004611 -8.039820 7.393433 0 0 0
42 1 1 18.000000 -9.668933 8.493491 9.571956 0 0 0
43 1 1 18.000000 8.570369 1.645113 -0.972084 0 0 0
44 1 1 18.000000 2.502523 -1.518442 8.105066 0 0 0
45 1 1 18.000000 -6.394051 2.859041 7.089528 0 0 0
46 1 1 18.000000 4.232820 -4.653545 10.741752 0 0 0
47 1 1 18.000000 10.808918 6.438539 4.799397 0 0 0
48 1 1 18.000000 -6.560832 1.135812 -7.458479 0 0 0
49 1 1 18.000000 -7.477176 -10.615636 8.274703 0 0 0
50 1 1 18.000000 -6.800841 1.767752 -4.001080 0 0 0
51 1 1 18.000000 -1.622482 -5.649762 6.879775 0 0 0
52 1 1 18.000000 -10.353879 9.951320 -10.910116 0 0 0
53 1 1 18.000000 -2.390798 9.564486 -9.058112 0 0 0
54 1 1 18.000000 -9.635300 -1.461617 -9.324785 0 0 0
55 1 1 18.000000 -11.164365 11.665831 -9.049143 0 0 0
56 1 1 18.000000 -9.265913 -5.777891 -4.506455 0 0 0
57 1 1 18.000000 -5.087262 7.477443 5.273891 0 0 0
58 1 1 18.000000 4.213360 10.462975 -8.210116 0 0 0
59 1 1 18.000000 1.556634 10.244067 -9.194909 0 0 0
60 1 1 18.000000 -1.094179 2.692650 -6.299004 0 0 0
61 1 1 18.000000 11.284307 9.633277 6.110609 0 0 0
62 1 1 18.000000 4.518709 5.115842 8.973671 0 0 0
63 1 1 18.000000 -11.229507 -7.571676 -1.464691 0 0 0
64 1 1 18.000000 -6.602868 -6.617389 4.094933 0 0 0
65 1 1 18.000000 -1.316101 -5.308316 3.936403 0 0 0
66 1 1 18.000000 -0.173598 7.619618 -2.049997 0 0 0
67 1 1 18.000000 -5.030867 -9.791111 1.434205 0 0 0
68 1 1 18.000000 5.764728 -6.248036 -6.162966 0 0 0
69 1 1 18.000000 -7.988060 -4.345351 0.732522 0 0 0
70 1 1 18.000000 10.141912 -9.132784 7.903688 0 0 0
71 1 1 18.000000 0.542911 -2.572128 -9.751995 0 0 0
72 1 1 18.000000 -0.879827 -2.403253 -4.045347 0 0 0
73 1 1 18.000000 -10.128615 -8.757268 3.357361 0 0 0
74 1 1 18.000000 4.076151 0.563579 4.912239 0 0 0
75 1 1 18.000000 -10.122652 -0.325580 5.859768 0 0 0
76 1 1 18.000000 -2.725963 1.870398 5.348143 0 0 0
77 1 1 18.000000 -8.494275 -2.107899 10.383548 0 0 0
78 1 1 18.000000 6.485892 4.115068 -8.201733 0 0 0
79 1 1 18.000000 3.457803 -8.783247 -4.584930 0 0 0
80 1 1 18.000000 1.140619 -7.514705 -5.400988 0 0 0
81 1 1 18.000000 4.382570 7.511121 3.861958 0 0 0
82 1 1 18.000000 -1.741028 2.074715 2.372358 0 0 0
83 1 1 18.000000 4.000389 5.777985 -0.650794 0 0 0
84 1 1 18.000000 3.385082 -10.402097 6.203088 0 0 0
85 1 1 18.000000 -4.175002 7.710873 -10.054801 0 0 0
86 1 1 18.000000 3.053020 -0.718501 -2.242807 0 0 0
87 1 1 18.000000 -1.689144 -0.604256 8.953878 0 0 0
88 1 1 18.000000 -0.544181 -5.951863 9.757665 0 0 0
89 1 1 18.000000 9.017835 -8.673017 3.145223 0 0 0
90 1 1 18.000000 -5.163799 4.703855 5.155843 0 0 0
91 1 1 18.000000 2.543457 6.111387 -8.763166 0 0 0
92 1 1 18.000000 -7.198020 8.180180 -6.520465 0 0 0
93 1 1 18.000000 -10.445914 5.338966 2.342843 0 0 0
94 1 1 18.000000 -0.861064 3.749351 8.150729 0 0 0
95 1 1 18.000000 10.585628 11.662150 11.165368 0 0 0
96 1 1 18.000000 -2.163833 6.094313 4.453714 0 0 0
97 1 1 18.000000 -9.596163 7.614182 -1.108447 0 0 0
98 1 1 18.000000 3.115243 3.265066 -10.555487 0 0 0
99 1 1 18.000000 -4.134538 -2.392102 -7.672465 0 0 0
100 1 1 18.000000 -0.410705 11.133299 7.517814 0 0 0
101 1 1 18.000000 9.381409 5.841466 -6.079046 0 0 0
102 1 1 18.000000 9.068272 2.490798 -7.645952 0 0 0
103 1 1 18.000000 -8.648539 -10.554535 -8.362532 0 0 0
104 1 1 18.000000 4.094531 -3.548938 -1.416626 0 0 0
105 1 1 18.000000 -3.612369 10.892096 2.044406 0 0 0
106 1 1 18.000000 6.433814 -8.956529 -10.621139 0 0 0
107 1 1 18.000000 3.558671 -6.071437 -3.500480 0 0 0
108 1 1 18.000000 -7.416258 -9.440597 -3.710866 0 0 0
109 1 1 18.000000 8.029722 -4.859931 -3.000451 0 0 0
110 1 1 18.000000 10.073641 -0.964710 6.450471 0 0 0
111 1 1 18.000000 6.305222 -4.996764 5.576615 0 0 0
112 1 1 18.000000 -3.099460 9.642699 -6.240976 0 0 0
113 1 1 18.000000 7.398946 0.305113 -9.994550 0 0 0
114 1 1 18.000000 0.750741 1.396005 0.131873 0 0 0
115 1 1 18.000000 -5.316957 -4.491391 -2.305173 0 0 0
116 1 1 18.000000 -11.771737 11.385320 9.401774 0 0 0
117 1 1 18.000000 -0.671638 3.955949 11.113915 0 0 0
118 1 1 18.000000 -1.918622 5.443263 -5.460273 0 0 0
119 1 1 18.000000 10.359734 -4.418544 0.692950 0 0 0
120 1 1 18.000000 -7.287704 -6.309731 -6.978535 0 0 0
121 1 1 18.000000 0.272707 2.914735 -2.653823 0 0 0
122 1 1 18.000000 -6.503081 2.234676 1.272189 0 0 0
123 1 1 18.000000 -8.306982 -3.704217 -8.627148 0 0 0
124 1 1 18.000000 3.032257 2.489353 7.087951 0 0 0
125 1 1 18.000000 3.389310 1.950743 1.422173 0 0 0
126 1 1 18.000000 3.098071 4.398317 3.295805 0 0 0
127 1 1 18.000000 1.324424 11.497728 -4.684449 0 0 0
128 1 1 18.000000 -1.983174 -0.599511 -8.613965 0 0 0
129 1 1 18.000000 -1.428085 -2.395971 -0.679379 0 0 0
130 1 1 18.000000 5.194150 5.994092 1.730267 0 0 0
131 1 1 18.000000 -9.946457 5.822924 9.154156 0 0 0
132 1 1 18.000000 1.576743 3.181197 9.425313 0 0 0
133 1 1 18.000000 -0.579606 -9.644376 7.638065 0 0 0
134 1 1 18.000000 1.105100 -9.111938 -1.896455 0 0 0
135 1 1 18.000000 -6.608661 -2.957840 -6.655434 0 0 0
136 1 1 18.000000 -8.653164 6.806494 5.283715 0 0 0
137 1 1 18.000000 -5.342505 3.940097 9.479198 0 0 0
138 1 1 18.000000 -10.597129 -8.051539 6.588137 0 0 0
139 1 1 18.000000 -8.738140 10.822875 -8.265819 0 0 0
140 1 1 18.000000 -3.027356 7.588888 -2.660931 0 0 0
141 1 1 18.000000 -4.523200 11.288055 10.024876 0 0 0
142 1 1 18.000000 1.318469 1.603321 4.434869 0 0 0
143 1 1 18.000000 -3.606278 -4.117856 8.445228 0 0 0
144 1 1 18.000000 9.900575 -2.570713 -9.064862 0 0 0
145 1 1 18.000000 -5.042616 9.541793 -2.700551 0 0 0
146 1 1 18.000000 4.310085 9.757065 10.178195 0 0 0
147 1 1 18.000000 2.383597 -4.171946 3.152263 0 0 0
148 1 1 18.000000 -5.201149 -0.869273 -5.197100 0 0 0
149 1 1 18.000000 -1.691914 9.443436 -0.549249 0 0 0
150 1 1 18.000000 1.243121 10.922043 3.693085 0 0 0
151 1 1 18.000000 -5.124845 8.054816 8.123101 0 0 0
152 1 1 18.000000 -4.015808 8.089509 10.767126 0 0 0
153 1 1 18.000000 0.136714 -11.044720 -7.009236 0 0 0
154 1 1 18.000000 -2.840747 -7.676726 3.967874 0 0 0
155 1 1 18.000000 -9.521066 -8.240401 -6.964844 0 0 0
156 1 1 18.000000 -5.237678 -5.069641 11.003875 0 0 0
157 1 1 18.000000 -0.446122 -9.848234 2.782921 0 0 0
158 1 1 18.000000 -8.865741 -10.423209 4.926160 0 0 0
159 1 1 18.000000 7.845221 -10.839933 -5.631973 0 0 0
160 1 1 18.000000 -1.134135 -1.880836 6.592576 0 0 0
161 1 1 18.000000 0.042879 -3.247357 11.139049 0 0 0
162 1 1 18.000000 -6.834135 -10.430797 -11.459166 0 0 0
163 1 1 18.000000 5.882103 2.404895 -0.380655 0 0 0
164 1 1 18.000000 -9.501900 -8.503115 0.847305 0 0 0
165 1 1 18.000000 2.385509 -10.640979 2.059437 0 0 0
166 1 1 18.000000 2.615776 11.476470 5.900312 0 0 0
167 1 1 18.000000 -6.502224 -5.293633 -10.079226 0 0 0
168 1 1 18.000000 6.051993 2.380562 4.940441 0 0 0
169 1 1 18.000000 2.143882 -10.116972 10.272221 0 0 0
170 1 1 18.000000 9.001105 -6.982921 6.503247 0 0 0
171 1 1 18.000000 -5.907731 -0.136367 4.011870 0 0 0
172 1 1 18.000000 -0.802719 7.059489 6.726038 0 0 0
173 1 1 18.000000 10.496836 -9.890516 -10.534818 0 0 0
174 1 1 18.000000 -0.157382 1.521348 -11.010524 0 0 0
175 1 1 18.000000 1.431438 1.764508 -8.742386 0 0 0
176 1 1 18.000000 -4.632289 -11.767953 -2.882844 0 0 0
177 1 1 18.000000 6.449510 -2.180798 9.092383 0 0 0
178 1 1 18.000000 3.954574 -1.855574 10.419502 0 0 0
179 1 1 18.000000 9.170467 -0.705917 10.163690 0 0 0
180 1 1 18.000000 8.843783 8.334611 -7.201032 0 0 0
181 1 1 18.000000 -11.660402 -1.449395 1.430633 0 0 0
182 1 1 18.000000 4.155430 -4.169146 -7.254595 0 0 0
183 1 1 18.000000 0.423307 0.348431 -6.609842 0 0 0
184 1 1 18.000000 6.636224 4.554598 11.070306 0 0 0
185 1 1 18.000000 -5.045565 -0.375148 -9.709563 0 0 0
186 1 1 18.000000 1.509927 -1.441476 -4.780752 0 0 0
187 1 1 18.000000 1.011938 6.777035 10.948437 0 0 0
188 1 1 18.000000 11.305251 -4.219761 10.132290 0 0 0
189 1 1 18.000000 5.666151 8.725749 0.889146 0 0 0
190 1 1 18.000000 -0.302168 3.874394 4.834463 0 0 0
191 1 1 18.000000 11.238457 8.228505 -1.544192 0 0 0
192 1 1 18.000000 -0.411977 7.023149 -7.167983 0 0 0
193 1 1 18.000000 1.551412 9.578731 -2.464917 0 0 0
194 1 1 18.000000 -0.039047 8.926033 2.118362 0 0 0
195 1 1 18.000000 0.796551 5.885697 -4.675298 0 0 0
196 1 1 18.000000 3.969987 -6.941310 9.045012 0 0 0
197 1 1 18.000000 3.964349 7.768738 -7.194507 0 0 0
198 1 1 18.000000 11.679384 11.196032 -7.960289 0 0 0
199 1 1 18.000000 -1.035623 -10.219837 -0.257438 0 0 0
200 1 1 18.000000 -6.533156 -3.609859 2.845000 0 0 0
201 1 1 18.000000 2.722810 -7.025143 0.442289 0 0 0
202 1 1 18.000000 -4.468009 -7.487736 -10.667939 0 0 0
203 1 1 18.000000 -0.503180 -11.181114 10.059843 0 0 0
204 1 1 18.000000 7.030412 -9.782655 7.804439 0 0 0
205 1 1 18.000000 -0.789709 -7.823975 -8.470835 0 0 0
206 1 1 18.000000 8.962388 6.329107 -2.781173 0 0 0
207 1 1 18.000000 -7.163021 -7.887626 1.743332 0 0 0
208 1 1 18.000000 7.624188 1.797723 7.263962 0 0 0
209 1 1 18.000000 1.891618 -7.327712 -8.011684 0 0 0
210 1 1 18.000000 5.460197 -8.647277 -7.818523 0 0 0
211 1 1 18.000000 4.682141 5.979307 -5.235605 0 0 0
212 1 1 18.000000 6.231883 6.021012 -2.251117 0 0 0
213 1 1 18.000000 5.386036 -3.573109 3.025379 0 0 0
214 1 1 18.000000 8.689273 -3.997460 8.599580 0 0 0
215 1 1 18.000000 -8.785941 -0.796294 -6.068627 0 0 0
216 1 1 18.000000 0.861256 -9.109602 5.410961 0 0 0
217 1 1 18.000000 8.838945 3.066769 -3.413699 0 0 0
218 1 1 18.000000 1.589198 -4.063791 8.968304 0 0 0
219 1 1 18.000000 -5.431029 -8.651566 5.043157 0 0 0
220 1 1 18.000000 -8.393003 3.504556 -2.284121 0 0 0
221 1 1 18.000000 7.478793 -6.359313 2.409037 0 0 0
222 1 1 18.000000 -10.390400 6.315869 -3.843047 0 0 0
223 1 1 18.000000 -3.249898 -11.189811 9.624617 0 0 0
224 1 1 18.000000 2.274996 -1.978449 -7.570526 0 0 0
225 1 1 18.000000 2.669649 1.868753 -2.981322 0 0 0
226 1 1 18.000000 0.327224 -6.609938 -1.600831 0 0 0
227 1 1 18.000000 -8.296741 1.271250 3.168985 0 0 0
228 1 1 18.000000 6.737884 8.722995 4.994740 0 0 0
229 1 1 18.000000 -4.644235 2.472660 3.048324 0 0 0
230 1 1 18.000000 5.003722 10.171683 7.207284 0 0 0
231 1 1 18.000000 5.303142 7.241344 -9.603897 0 0 0
232 1 1 18.000000 6.759749 11.725003 -8.000747 0 0 0
233 1 1 18.000000 7.009622 4.482933 -5.229718 0 0 0
234 1 1 18.000000 -8.823236 -0.158151 -1.934641 0 0 0
235 1 1 18.000000 -11.405773 4.436520 -1.620741 0 0 0
236 1 1 18.000000 9.465122 11.355052 1.432603 0 0 0
237 1 1 18.000000 5.347729 -5.129142 0.650173 0 0 0
238 1 1 18.000000 3.811923 3.319503 -4.856428 0 0 0
239 1 1 18.000000 6.357255 -11.584917 -0.502083 0 0 0
240 1 1 18.000000 -1.903130 -6.355787 -6.222484 0 0 0
241 1 1 18.000000 -4.126324 -8.426521 -6.268634 0 0 0
242 1 1 18.000000 -3.478172 -8.478333 -0.413143 0 0 0
243 1 1 18.000000 1.072240 -1.437500 -0.241924 0 0 0
244 1 1 18.000000 6.171644 -7.360307 6.871036 0 0 0
245 1 1 18.000000 9.554052 -7.036501 -5.647960 0 0 0
246 1 1 18.000000 3.279577 -7.979556 3.004478 0 0 0
247 1 1 18.000000 -3.599206 -6.443971 1.621019 0 0 0
248 1 1 18.000000 7.257486 9.218336 -9.334924 0 0 0
249 1 1 18.000000 4.072097 8.070042 -3.139897 0 0 0
250 1 1 18.000000 -7.675419 9.207208 7.074994 0 0 0
251 1 1 18.000000 9.512059 -3.752506 -5.895198 0 0 0
252 1 1 18.000000 1.867038 -4.462148 0.181574 0 0 0
253 1 1 18.000000 8.455570 1.177705 -5.300850 0 0 0
254 1 1 18.000000 1.582077 5.204753 -2.046825 0 0 0
255 1 1 18.000000 -1.919301 6.022356 9.109138 0 0 0
256 1 1 18.000000 5.611196 7.567467 9.564510 0 0 0
257 1 1 18.000000 3.408143 -4.064122 5.791263 0 0 0
258 1 1 18.000000 10.044466 -1.171484 -5.500185 0 0 0
259 1 1 18.000000 8.446798 -2.426162 -0.328349 0 0 0
260 1 1 18.000000 -2.980053 -7.879213 -3.132245 0 0 0
261 1 1 18.000000 7.437249 -10.695093 4.779472 0 0 0
262 1 1 18.000000 4.226859 -9.822251 8.678613 0 0 0
263 1 1 18.000000 6.986341 -9.060019 1.197883 0 0 0
264 1 1 18.000000 -5.532393 -6.836882 -4.490857 0 0 0
265 1 1 18.000000 6.672697 -7.308392 -3.621769 0 0 0
266 1 1 18.000000 7.367506 -6.270967 -10.264331 0 0 0
267 1 1 18.000000 6.582946 -2.975925 -7.389693 0 0 0
268 1 1 18.000000 1.377247 -7.477025 11.396647 0 0 0
269 1 1 18.000000 6.443097 -9.997778 -3.466540 0 0 0
270 1 1 18.000000 10.572372 9.021747 -9.105421 0 0 0
271 1 1 18.000000 10.223720 1.798499 10.622176 0 0 0
272 1 1 18.000000 9.606756 -1.742928 -2.587453 0 0 0
273 1 1 18.000000 10.589875 0.203411 -8.843129 0 0 0
274 1 1 18.000000 -0.600332 9.470675 5.199456 0 0 0
275 1 1 18.000000 5.778517 0.306456 -7.212558 0 0 0
276 1 1 18.000000 10.108506 -8.476060 -1.549584 0 0 0
277 1 1 18.000000 0.058490 -7.299028 1.591999 0 0 0
278 1 1 18.000000 -2.828283 -10.952386 3.799678 0 0 0
279 1 1 18.000000 -4.368559 -3.669029 4.699339 0 0 0
280 1 1 18.000000 5.101654 0.900000 7.732562 0 0 0
281 1 1 18.000000 7.977676 7.113892 2.990367 0 0 0
282 1 1 18.000000 -0.056779 1.189607 7.777373 0 0 0
283 1 1 18.000000 -6.891704 7.803935 10.570256 0 0 0
284 1 1 18.000000 4.353757 10.841416 -3.401278 0 0 0
285 1 1 18.000000 9.999767 9.089653 3.345767 0 0 0
286 1 1 18.000000 6.749334 7.281102 7.120193 0 0 0
287 1 1 18.000000 7.316413 10.533418 -3.276974 0 0 0
288 1 1 18.000000 3.215687 11.379078 -0.821486 0 0 0
289 1 1 18.000000 2.192693 10.993563 8.505293 0 0 0
290 1 1 18.000000 1.126056 8.437777 8.647258 0 0 0
291 1 1 18.000000 3.768063 -10.225372 -2.196022 0 0 0
292 1 1 18.000000 4.602789 1.165293 -10.079377 0 0 0
293 1 1 18.000000 -0.729049 -9.766341 -4.020800 0 0 0
294 1 1 18.000000 8.621373 2.610695 -10.882616 0 0 0
295 1 1 18.000000 6.378184 -1.072973 -1.906573 0 0 0
296 1 1 18.000000 9.698612 -0.174853 0.739198 0 0 0
297 1 1 18.000000 -1.589340 -5.333100 -3.050506 0 0 0
298 1 1 18.000000 5.796854 0.793369 -4.527049 0 0 0
299 1 1 18.000000 7.395355 -2.173913 -4.498469 0 0 0
300 1 1 18.000000 8.675705 6.686483 0.160707 0 0 0
301 1 1 18.000000 -4.397442 7.462074 -7.322110 0 0 0
302 1 1 18.000000 7.560760 8.626651 -1.234095 0 0 0
303 1 1 18.000000 11.111956 6.929641 1.654769 0 0 0
304 1 1 18.000000 5.923799 -7.405329 -0.804492 0 0 0
305 1 1 18.000000 6.421080 3.420341 2.251749 0 0 0
306 1 1 18.000000 0.270371 7.717062 -9.817489 0 0 0
307 1 1 18.000000 8.409691 -3.461064 2.627631 0 0 0
308 1 1 18.000000 2.045298 -4.256834 -5.293907 0 0 0
309 1 1 18.000000 6.849766 -1.324979 3.063785 0 0 0
310 1 1 18.000000 10.587066 -11.186889 3.118865 0 0 0
311 1 1 18.000000 8.461671 -6.300068 -0.601528 0 0 0
312 1 1 18.000000 8.969753 -10.812051 -2.187339 0 0 0
313 1 1 18.000000 5.511146 -0.096478 0.965180 0 0 0
314 1 1 18.000000 -3.071801 -4.684198 -0.652672 0 0 0
315 1 1 18.000000 5.212564 -8.890527 4.763056 0 0 0
316 1 1 18.000000 8.787036 4.417704 6.514155 0 0 0
317 1 1 18.000000 7.912050 -5.545834 -7.647629 0 0 0
318 1 1 18.000000 9.363921 -4.803554 4.920666 0 0 0
319 1 1 18.000000 -2.479413 2.359199 -10.036306 0 0 0
320 1 1 18.000000 11.106402 -7.680209 1.579964 0 0 0
321 1 1 18.000000 1.559018 -6.690025 7.267757 0 0 0
322 1 1 18.000000 7.885373 -3.482282 -10.893110 0 0 0
323 1 1 18.000000 7.480639 -6.119385 10.008541 0 0 0
324 1 1 18.000000 -4.696062 5.966463 -4.966293 0 0 0
325 1 1 18.000000 1.895619 -0.916809 5.338485 0 0 0
326 1 1 18.000000 9.799199 7.688045 10.019552 0 0 0
327 1 1 18.000000 5.308327 2.150543 10.283460 0 0 0
328 1 1 18.000000 9.782191 8.982631 -3.932208 0 0 0
329 1 1 18.000000 11.345509 -5.618542 7.454910 0 0 0
330 1 1 18.000000 9.421419 7.917823 6.900559 0 0 0
331 1 1 18.000000 2.690431 -0.667549 2.324424 0 0 0
332 1 1 18.000000 0.363407 -2.960534 1.891742 0 0 0
333 1 1 18.000000 7.103986 5.241332 -10.660021 0 0 0
334 1 1 18.000000 9.586922 11.405980 -1.745313 0 0 0
335 1 1 18.000000 7.706466 -11.082222 10.328689 0 0 0
336 1 1 18.000000 3.851916 -8.697651 -10.308363 0 0 0
337 1 1 18.000000 8.975700 -8.535627 10.623791 0 0 0
338 1 1 18.000000 4.541333 -2.426830 -4.373598 0 0 0
339 1 1 18.000000 8.301491 0.477311 5.053295 0 0 0
340 1 1 18.000000 8.946074 4.522448 3.799751 0 0 0
341 1 1 18.000000 5.265486 -2.042961 6.662073 0 0 0
342 1 1 18.000000 8.621929 1.892540 2.629059 0 0 0
343 1 1 18.000000 9.198605 -9.173387 -7.256025 0 0 0
344 1 1 18.000000 11.844502 4.197601 11.171203 0 0 0
345 1 1 18.000000 9.702766 4.150111 -0.152241 0 0 0
346 1 1 18.000000 -8.934945 -11.097216 -0.253906 0 0 0
347 1 1 18.000000 -11.073464 0.811105 8.996916 0 0 0
348 1 1 18.000000 6.058393 4.580614 6.833293 0 0 0
349 1 1 18.000000 4.337747 10.721117 2.922306 0 0 0
350 1 1 18.000000 -5.751923 -2.261427 -11.629339 0 0 0
351 1 1 18.000000 -5.796170 -8.335611 -8.300459 0 0 0
352 1 1 18.000000 -6.817121 -0.280213 0.036711 0 0 0
353 1 1 18.000000 -6.799197 7.320411 3.253170 0 0 0
354 1 1 18.000000 -9.821411 1.471550 -4.759296 0 0 0
355 1 1 18.000000 -10.010915 9.430911 5.035380 0 0 0
356 1 1 18.000000 -11.305790 -9.163098 -4.916850 0 0 0
357 1 1 18.000000 -11.546305 -4.673676 -2.910191 0 0 0
358 1 1 18.000000 -11.082094 0.256052 -11.061594 0 0 0
359 1 1 18.000000 -4.071007 5.036207 2.328716 0 0 0
360 1 1 18.000000 -8.770705 10.841103 -0.313419 0 0 0
361 1 1 18.000000 -7.393162 10.347967 -4.808567 0 0 0
362 1 1 18.000000 -10.861296 11.003936 1.467734 0 0 0
363 1 1 18.000000 -3.487359 -1.110853 4.857293 0 0 0
364 1 1 18.000000 -7.218515 6.968515 -9.146669 0 0 0
365 1 1 18.000000 -8.545459 -11.872032 2.452517 0 0 0
366 1 1 18.000000 -9.739084 -8.135455 -10.822856 0 0 0
367 1 1 18.000000 -5.731445 9.275730 1.570239 0 0 0
368 1 1 18.000000 -6.694014 3.457218 -5.963554 0 0 0
369 1 1 18.000000 -10.693742 1.608835 1.773602 0 0 0
370 1 1 18.000000 -1.560844 9.380172 10.443248 0 0 0
371 1 1 18.000000 -6.027259 4.052180 -8.636352 0 0 0
372 1 1 18.000000 -9.870175 10.075739 -2.502573 0 0 0
373 1 1 18.000000 -8.786433 2.025892 5.815282 0 0 0
374 1 1 18.000000 1.617611 4.040160 -6.748674 0 0 0
375 1 1 18.000000 -9.986402 4.687713 6.679554 0 0 0
376 1 1 18.000000 1.449376 8.431405 -5.477486 0 0 0
377 1 1 18.000000 -8.584048 -3.930201 -11.631307 0 0 0
378 1 1 18.000000 -3.000805 3.636295 -2.545800 0 0 0
379 1 1 18.000000 -10.486315 -5.460289 0.196962 0 0 0
380 1 1 18.000000 -10.644467 -2.619492 -4.875685 0 0 0
381 1 1 18.000000 -4.471764 -11.593193 -8.567011 0 0 0
382 1 1 18.000000 -10.906654 -4.948584 -6.963544 0 0 0
383 1 1 18.000000 -0.532064 10.299760 -7.162224 0 0 0
384 1 1 18.000000 -6.744973 -6.304370 -0.539023 0 0 0
385 1 1 18.000000 -3.073661 9.083758 4.038910 0 0 0
386 1 1 18.000000 -6.014686 -0.656610 10.308103 0 0 0
387 1 1 18.000000 4.329016 -10.908401 -6.190795 0 0 0
388 1 1 18.000000 -4.185777 2.389119 -4.531032 0 0 0
389 1 1 18.000000 -6.322783 -0.148226 7.492716 0 0 0
390 1 1 18.000000 1.008495 6.638541 3.198523 0 0 0
391 1 1 18.000000 -11.300704 -0.396677 -1.099626 0 0 0
392 1 1 18.000000 -3.238323 5.126165 -9.636811 0 0 0
393 1 1 18.000000 -9.867092 -5.509946 9.948189 0 0 0
394 1 1 18.000000 6.326731 11.337195 0.433118 0 0 0
395 1 1 18.000000 -9.385867 4.153071 0.093348 0 0 0
396 1 1 18.000000 -9.740896 8.820427 -6.999684 0 0 0
397 1 1 18.000000 -3.825417 5.565715 -0.541377 0 0 0
398 1 1 18.000000 -9.138021 2.161836 -8.598776 0 0 0
399 1 1 18.000000 -3.458767 -11.130920 -5.686265 0 0 0
400 1 1 18.000000 -4.703165 -1.889540 1.830213 0 0 0
401 1 1 18.000000 -8.635409 -1.480006 7.761872 0 0 0

Bodies

1 1 15
3
1.499776 1.747390 0.604681 0.264971 0.095540 0.074429
0.053671 -0.034968 0.003466
-0.354071 0.314815 -0.839978
-0.504669 0.244666 0.784529
2 1 15
3
1.625623 1.085194 1.141031 0.451081 0.023209 -0.392314
-0.031555 0.023065 -0.050869
-0.027672 0.433588 0.860973
0.532545 -0.802633 -0.047070
3 1 15
3
1.164316 1.032953 1.654578 -0.242377 0.218418 0.482148
-0.055535 0.030924 -0.008653
0.842709 0.367126 -0.291719
0.045857 -0.861910 0.430172
4 1 15
3
1.824044 1.402765 0.625039 0.195072 -0.142024 -0.134328
-0.025107 0.058718 -0.006102
0.275383 -0.354240 0.853650
0.126328 -0.585243 -0.756023
5 1 15
3
1.357342 0.846724 1.647782 -0.341615 0.387525 0.122143
-0.039680 0.036567 0.034695
-0.095997 -0.958362 -0.048647
0.730873 0.373295 -0.506473
6 1 15
3
0.658512 1.806191 1.387145 -0.175219 -0.138973 -0.242826
0.017725 -0.022840 -0.057267
0.639924 0.332075 0.640517
-0.923517 0.033358 0.275760
7 1 15
3
1.502679 1.146092 1.203076 -0.524424 -0.047044 -0.363774
-0.031813 -0.015085 0.053626
-0.117992 -0.490494 -0.821908
0.627000 0.731851 -0.036106
8 1 15
3
1.366833 1.296091 1.188924 -0.136555 -0.062010 0.644781
0.062027 0.009024 0.013657
-0.546545 -0.628116 0.486618
-0.445893 0.483736 -0.705137
9 1 15
3
0.864531 1.309167 1.678149 -0.209636 0.335511 0.351815
-0.035192 0.050705 -0.017490
0.946012 -0.054538 -0.179239
-0.382934 -0.756735 0.459079
10 1 15
3
0.936111 1.798964 1.116772 0.346513 -0.340427 0.056629
0.031232 -0.016737 -0.053477
0.401818 -0.074210 0.873541
-0.901525 0.342009 -0.017909
11 1 15
3
1.409378 1.816948 0.625521 -0.192135 -0.088523 0.186634
-0.059464 -0.024046 0.001096
0.414992 0.305752 -0.815068
0.536425 0.078990 0.797526
12 1 15
3
1.804412 0.715837 1.331599 0.330605 0.164771 -0.108895
0.010062 0.016190 -0.061253
-0.311726 0.636100 0.654403
0.150729 -0.895137 0.325653
13 1 15
3
1.029147 1.101317 1.721383 0.344864 -0.419017 0.083298
0.030152 0.052467 0.021294
0.377600 -0.882448 0.093503
-0.860029 0.042980 -0.434215
14 1 15
3
1.411187 1.833800 0.606860 -0.198383 -0.070027 0.116238
-0.059459 -0.024008 0.001890
0.528764 0.124506 0.796835
0.422586 0.259615 -0.827079
15 1 15
3
1.250541 1.881246 0.720060 -0.008795 0.238481 0.226677
0.060267 -0.007571 0.020638
-0.758143 -0.074388 0.591376
-0.206128 0.195517 -0.921588
16 1 15
3
1.370584 1.302315 1.178947 0.211868 -0.621925 0.071738
0.001841 0.060665 0.020777
-0.541438 -0.268935 -0.751371
0.511986 -0.701710 0.418941
17 1 15
3
1.861636 1.253138 0.737073 0.101385 -0.267007 0.218666
0.000322 -0.060181 -0.022215
0.176693 0.206444 0.925310
-0.181839 0.756451 -0.569873
18 1 15
3
1.759310 1.284279 0.808258 -0.227987 0.367012 0.182916
-0.008503 -0.057965 -0.026137
0.347493 0.744626 -0.504797
-0.211437 0.182806 0.922993
19 1 15
3
1.232135 1.148523 1.471190 0.164456 -0.512699 0.358205
-0.037972 -0.050943 -0.008847
-0.189259 0.856818 -0.400104
0.796806 -0.041724 0.541662
20 1 15
3
1.043825 1.439338 1.368684 -0.053257 0.574179 -0.263151
0.024781 0.056453 0.017730
-0.828194 -0.334002 0.364111
0.431704 -0.569243 -0.647791
21 1 15
3
1.795971 0.747386 1.308490 0.390939 -0.053733 0.123306
0.002487 -0.011608 -0.063043
0.234136 -0.668429 0.654539
-0.273923 0.854157 0.354149
22 1 15
3
1.333299 0.613458 1.905091 -0.040143 -0.027914 0.157996
0.063976 -0.002717 0.003874
-0.552055 -0.788015 0.065629
-0.471565 0.831493 -0.127615
23 1 15
3
1.150373 1.077024 1.624450 -0.232223 0.440770 0.331289
0.041576 -0.048175 -0.008125
-0.845753 -0.121902 0.447080
0.180543 0.892696 -0.317075
24 1 15
3
0.904585 1.105510 1.841752 -0.315744 0.230008 0.224075
0.039454 -0.050395 0.004361
-0.946975 -0.073650 0.166891
0.315706 0.879974 -0.236674
25 1 15
3
0.990862 1.554243 1.306743 -0.224807 0.528246 -0.192191
0.020034 0.050308 0.034397
-0.822563 -0.462614 0.198538
0.502026 -0.342308 -0.748888
26 1 15
3
1.311632 0.618997 1.921218 -0.128339 -0.039518 -0.060879
-0.063024 0.011582 -0.003037
0.358714 -0.895031 -0.016797
0.649665 0.709718 0.065389
27 1 15
3
1.133025 1.810190 0.908632 -0.149822 0.299124 0.337715
-0.054480 0.006435 -0.033255
0.008341 -0.285756 0.921039
0.863331 0.182797 -0.388952
28 1 15
3
0.679192 1.841011 1.331645 -0.195248 -0.223067 0.138623
-0.013715 -0.021361 0.058915
0.890632 0.268887 -0.253995
-0.671191 0.072884 -0.688644
29 1 15
3
1.679271 1.347232 0.825344 -0.180572 0.278790 -0.388107
0.038451 0.048747 -0.016142
-0.177707 -0.733856 -0.599929
-0.437512 -0.046102 0.858194
30 1 15
3
0.672070 1.695742 1.484035 0.021669 -0.246579 0.304936
0.018964 0.038787 -0.047448
0.623548 -0.392585 0.622176
-0.926977 -0.228008 0.136985
31 1 15
3
1.292481 1.097193 1.462173 -0.587021 0.240074 -0.103305
0.019629 -0.024284 -0.056039
0.380531 0.804110 0.372346
-0.694603 -0.415574 0.524275
32 1 15
3
1.359061 1.615590 0.877197 -0.085330 -0.165565 0.520604
0.061222 0.019160 -0.000354
-0.606252 0.205518 -0.721291
-0.373299 -0.512077 0.726956
33 1 15
3
0.933405 1.688717 1.229725 -0.484934 -0.225818 -0.123590
0.022099 0.009471 -0.059475
-0.855834 -0.410650 0.170160
0.502248 0.259110 0.781440
34 1 15
3
1.605568 1.438985 0.807294 0.330916 -0.388038 0.094035
0.024577 -0.052482 -0.027512
0.144976 0.207361 0.930603
-0.538213 0.632353 -0.490404
35 1 15
3
0.763151 1.747004 1.341692 0.436349 0.025242 -0.103579
-0.008251 -0.007125 -0.063218
0.825277 -0.235925 0.439654
-0.693254 0.349924 0.571832
36 1 15
3
1.620849 0.913225 1.317774 0.554941 -0.033652 0.105476
-0.006565 0.007246 0.063401
-0.334046 0.650951 -0.628264
0.439088 -0.766891 -0.386159
37 1 15
3
1.523031 0.961196 1.367620 -0.566122 0.203771 0.008753
0.010973 -0.018118 -0.060553
-0.526848 -0.532348 0.607516
0.351279 0.822241 0.361333
38 1 15
3
1.652777 0.669164 1.529907 -0.015234 0.310523 0.249713
-0.042529 0.017754 0.044625
0.419878 0.636226 -0.590727
0.260594 -0.920290 -0.123272
39 1 15
3
0.953962 1.766422 1.131464 -0.088182 0.432386 -0.262798
-0.038303 -0.032170 -0.040166
-0.310298 0.329726 0.851490
0.923148 0.184997 -0.208835
40 1 15
3
0.835197 1.291817 1.724833 0.345404 -0.340121 -0.115597
0.016661 0.053972 0.030410
-0.858119 -0.104186 -0.427569
0.591537 -0.759371 -0.058984
41 1 15
3
0.760804 1.268661 1.822382 -0.318416 -0.211578 0.134881
0.021611 -0.055180 0.024567
-0.913785 0.110671 -0.287728
0.568017 0.772203 -0.105346
42 1 15
3
0.643282 1.812512 1.396054 -0.202937 0.077272 0.218870
0.012933 -0.021491 0.059044
0.689811 0.325068 -0.590365
-0.896731 0.018792 -0.354344
43 1 15
3
1.003660 1.786730 1.061458 0.072307 0.424289 0.265674
0.042631 -0.029113 0.038084
0.233651 0.325488 -0.877214
-0.915747 0.140322 0.267873
44 1 15
3
1.792440 1.283160 0.776247 -0.292823 0.125001 0.294492
0.023477 0.050442 0.031934
-0.352308 -0.775269 0.452633
-0.023320 -0.031805 -0.963579
45 1 15
3
1.762961 1.488169 0.600718 -0.257986 -0.091488 0.048482
-0.032949 -0.055041 0.000472
0.321167 0.412844 0.810216
0.206021 0.467807 -0.817772
46 1 15
3
1.512248 0.640634 1.698966 0.200884 -0.267393 -0.123687
0.050180 0.007545 0.039248
-0.561249 0.738735 -0.263269
-0.241635 -0.859448 -0.364694
47 1 15
3
1.341006 1.219501 1.291340 -0.113925 0.017978 -0.655152
0.063082 0.002461 -0.011397
-0.581743 -0.613639 -0.463747
-0.427577 0.574259 0.646099
48 1 15
3
1.545524 1.283710 1.022613 0.479500 0.307800 -0.230735
0.018832 -0.038812 0.047479
0.255133 -0.150636 -0.917744
-0.556446 0.771635 0.158072
49 1 15
3
1.803010 0.642291 1.406547 0.039731 -0.237497 -0.200463
0.029176 -0.014364 0.055297
-0.220386 0.906721 -0.243568
-0.246423 -0.676896 -0.641191
50 1 15
3
1.096364 1.182577 1.572907 0.500935 -0.058310 -0.356991
-0.039159 -0.023752 -0.044920
0.864973 -0.385361 0.182642
-0.238427 0.765387 0.536073
51 1 15
3
1.467581 1.255201 1.129065 -0.524814 -0.330135 -0.180476
0.012482 0.035762 -0.051775
0.367001 0.207134 0.867436
-0.566710 -0.779330 -0.039041
52 1 15
3
1.747959 0.619797 1.484091 -0.159470 0.267924 0.028531
0.031879 -0.009320 -0.054884
-0.380773 -0.729689 0.502599
-0.129291 0.878801 0.375541
53 1 15
3
1.809955 0.664314 1.377578 -0.203284 -0.231757 -0.128548
0.020798 -0.017486 0.058112
-0.002558 0.920138 -0.288753
-0.330213 -0.640362 -0.641042
54 1 15
3