Header
2 atoms
2 bodies
3 atom types
0 18.6206 xlo xhi
0 18.6206 ylo yhi
0 18.6206 zlo zhi

Atoms

1 1 1 18.0152 2.24853 6.25706 1.09923 0 0 0 
2 1 1 18.0152 2.62979 5.01531 -0.0952422 0 0 0 

Bodies

1 1 15
3
1.11824 1.79812 0.968331 0.00645387 0.384624 -0.34146
0.0514714 0.0229384 0.030771
-0.878529 0.00293835 0.400771
0.0614714 -0.367062 -0.889229
2 1 15
3
1.04306 1.73689 1.11693 -0.324815 -0.456548 0.0752399
0.0302115 0.0346873 -0.0447578
0.380211 -0.135313 0.875242
-0.859789 -0.415313 -0.164758
