LAMMPS (21 Dec 2016)
Reading data file ...
  orthogonal box = (0 0 0) to (18.6206 18.6206 18.6206)
  1 by 1 by 1 MPI processor grid
  reading atoms ...
  2 atoms
  2 bodies
initialize water db
initialize water db finished
Neighbor list info ...
  update every 1 steps, delay 0 steps, check yes
  max neighbors/atom: 2000, page size: 100000
  master list distance cutoff = 10.7
  ghost atom cutoff = 10.7
  binsize = 5.35, bins = 4 4 4
  1 neighbor lists, perpetual/occasional/extra = 1 0 0
  (1) pair body, perpetual
      pair build: half/bin/newton
      stencil: half/bin/3d/newton
      bin: standard
Setting up Verlet run ...
  Unit style    : real
  Current step  : 0
  Time step     : 1
9.800000 9.050000 13.589995
10.340000 8.760000 14.389995
10.100000 9.950000 13.299995
10.720000 11.660003 13.180002
10.550000 12.490003 12.640002
11.620000 11.290003 12.960002
Memory usage per processor = 7.06267 Mbytes
Step Temp c_1 PotEng TotEng 
       0          300          100            0   0.89424301 
9.802931 9.052453 13.587580
10.342775 8.762663 14.387761
10.101894 9.953057 13.298386
10.717151 11.657479 13.182361
10.546661 12.487394 12.642386
11.617378 11.288030 12.962367
       1    278.06235    94.100058            0   0.82885104 
9.805868 9.054702 13.585105
10.345239 8.765545 14.385833
10.101685 9.957122 13.298348
10.714460 11.655014 13.184663
10.542496 12.484676 12.644765
11.615375 11.287230 12.964693
       2    256.24113    91.097457            0   0.76380614 
9.808811 9.056743 13.582571
10.347380 8.768632 14.384217
10.099350 9.962156 13.299882
10.711931 11.652615 13.186908
10.537508 12.481848 12.647140
11.613986 11.287613 12.966978
       3    234.79949      91.0415            0   0.69989269 
9.811761 9.058575 13.579981
10.349175 8.771902 14.382916
10.094878 9.968087 13.302974
10.709565 11.650290 13.189095
10.531705 12.478912 12.649510
11.613195 11.289176 12.969211
       4    214.00331    93.856115            0   0.63790323 
9.814720 9.060201 13.577336
10.350594 8.775319 14.381936
10.088275 9.974808 13.307592
10.707363 11.648045 13.191227
10.525104 12.475862 12.651874
11.612971 11.291902 12.971377
       5    194.09421    99.320348            0   0.57855798 
9.817690 9.061629 13.574637
10.351597 8.778841 14.381281
10.079569 9.982184 13.313683
10.705324 11.645888 13.193304
10.517723 12.472690 12.654226
11.613273 11.295759 12.973448
       6    175.29327    107.05912            0   0.52251594 
9.820675 9.062866 13.571888
10.352139 8.782414 14.380957
10.068818 9.990048 13.321169
10.703446 11.643827 13.195332
10.509589 12.469385 12.656563
11.614044 11.300700 12.975392
       7    157.82345    116.54837            0   0.47044172 
9.823678 9.063928 13.569092
10.352167 8.785978 14.380968
10.056118 9.998208 13.329944
10.701725 11.641869 13.197317
10.500735 12.465933 12.658874
11.615214 11.306654 12.977162
       8    141.67156    126.81806            0   0.42229601 
9.826697 9.064825 13.566261
10.351659 8.789456 14.381298
10.041651 10.006431 13.339824
10.700155 11.640026 13.199262
10.491224 12.462345 12.661172
11.616716 11.313554 12.978738
       9    126.75567    136.74383            0   0.37783459 
9.829725 9.065568 13.563404
10.350599 8.792767 14.381921
10.025636 10.014480 13.350603
10.698727 11.638312 13.201169
10.481128 12.458635 12.663470
11.618481 11.321325 12.980099
      10    113.15983      145.603            0   0.33730795 
9.832758 9.066167 13.560535
10.348971 8.795835 14.382816
10.008314 10.022143 13.362070
10.697433 11.636738 13.203043
10.470518 12.454821 12.665781
11.620436 11.329883 12.981221
      11    100.98324    152.91382            0   0.30101184 
9.835790 9.066631 13.557665
10.346763 8.798587 14.383957
9.989937 10.029239 13.374021
10.696263 11.635316 13.204888
10.459465 12.450915 12.668114
11.622511 11.339137 12.982079
      12    90.215848    159.07028            0   0.26891631 
9.838819 9.066969 13.554800
10.343970 8.800991 14.385329
9.970616 10.035650 13.386317
10.695214 11.634049 13.206704
10.448008 12.446928 12.670498
11.624668 11.349056 12.982665
      13    80.918511    163.93485            0   0.24120271 
9.841839 9.067189 13.551951
10.340577 8.802982 14.386909
9.950616 10.041255 13.398774
10.694274 11.632947 13.208499
10.436219 12.442867 12.672927
11.626830 11.359523 12.982940
      14     73.19395    166.72739            0   0.21817726 
9.844847 9.067299 13.549126
10.336569 8.804503 14.388678
9.930198 10.045969 13.411220
10.693432 11.632019 13.210277
10.424169 12.438739 12.675394
11.628924 11.370411 12.982867
      15    67.006658    167.49491            0   0.19973412 
9.847837 9.067301 13.546333
10.331930 8.805501 14.390617
9.909614 10.049745 13.423505
10.692678 11.631275 13.212046
10.411931 12.434553 12.677887
11.630881 11.381591 12.982407
      16    62.313377    166.44411            0   0.18574434 
9.850808 9.067201 13.543579
10.326647 8.805939 14.392708
9.889089 10.052570 13.435496
10.692002 11.630722 13.213811
10.399574 12.430319 12.680396
11.632636 11.392926 12.981518
      17    59.043532    163.80386            0   0.17599755 
9.853756 9.066998 13.540869
10.320709 8.805781 14.394930
9.868844 10.054457 13.447077
10.691391 11.630369 13.215578
10.387169 12.426052 12.682906
11.634136 11.404285 12.980170
      18    57.125581    159.76907            0   0.17028051 
9.856676 9.066691 13.538210
10.314113 8.804998 14.397261
9.849087 10.055444 13.458146
10.690835 11.630224 13.217351
10.374784 12.421773 12.685409
11.635336 11.415540 12.978334
      19    56.541851    154.36972            0   0.16854052 
9.859563 9.066273 13.535608
10.306859 8.803565 14.399674
9.830071 10.055585 13.468589
10.690323 11.630297 13.219133
10.362493 12.417517 12.687898
11.636196 11.426566 12.975991
      20    57.277334     147.9077            0   0.17073285 
9.862411 9.065738 13.533069
10.298960 8.801474 14.402143
9.811983 10.054960 13.478332
10.689845 11.630594 13.220928
10.350360 12.413319 12.690370
11.636691 11.437256 12.973132
      21    59.300929    140.88367            0    0.1767648 
9.865216 9.065076 13.530597
10.290435 8.798725 14.404637
9.795000 10.053659 13.487311
10.689391 11.631123 13.222735
10.338448 12.409218 12.692822
11.636805 11.447516 12.969763
      22    62.991074    131.76804            0   0.18776443 
9.867934 9.064250 13.528213
10.281446 8.795349 14.407076
9.779746 10.051790 13.495236
10.688945 11.631909 13.224549
10.326876 12.405337 12.695291
11.636546 11.457290 12.965974
      23    68.595574    121.18496            0   0.20447038 
9.870559 9.063244 13.525920
10.272023 8.791379 14.409445
9.766433 10.049494 13.502073
10.688497 11.632956 13.226370
10.315690 12.401723 12.697774
11.635908 11.466507 12.961779
      24     75.83621       111.48            0   0.22605334 
9.873083 9.062047 13.523718
10.262190 8.786857 14.411731
9.755242 10.046912 13.507814
10.688040 11.634268 13.228198
10.304932 12.398416 12.700272
11.634890 11.475106 12.957196
      25    84.757817    103.10174            0   0.25264695 
9.875494 9.060638 13.521607
10.252043 8.781892 14.413913
9.746301 10.044164 13.512419
10.687569 11.635850 13.230036
10.294617 12.395433 12.702758
11.633500 11.483048 12.952251
      26    95.330748    96.504564            0   0.28416285 
9.877787 9.059009 13.519583
10.241601 8.776531 14.415991
9.739741 10.041368 13.515921
10.687078 11.637702 13.231885
10.284770 12.392804 12.705226
11.631742 11.490292 12.946966
      27    107.39661    92.174842            0   0.32012889 
9.879959 9.057152 13.517644
10.230880 8.770827 14.417962
9.735664 10.038619 13.518371
10.686562 11.639823 13.233745
10.275406 12.390554 12.707671
11.629620 11.496802 12.941364
      28      120.845    90.411447            0   0.36021598 
9.882008 9.055063 13.515785
10.219894 8.764835 14.419831
9.734147 10.035991 13.519826
10.686016 11.642209 13.235614
10.266532 12.388703 12.710085
11.627136 11.502554 12.935465
      29    135.55792    91.408868            0   0.40407241 
9.883932 9.052739 13.514000
10.208652 8.758607 14.421603
9.735250 10.033532 13.520349
10.685438 11.644857 13.237493
10.258151 12.387266 12.712464
11.624295 11.507529 12.929291
      30    151.40893     95.27539            0   0.45132126 
9.885731 9.050182 13.512285
10.197159 8.752197 14.423283
9.739014 10.031260 13.520010
10.684825 11.647762 13.239382
10.250259 12.386253 12.714802
11.621097 11.511716 12.922862
      31     168.2642    102.04618            0   0.50156362 
9.887405 9.047392 13.510633
10.185421 8.745657 14.424877
9.745466 10.029169 13.518876
10.684175 11.650918 13.241281
10.242849 12.385670 12.717094
11.617543 11.515111 12.916197
      32    185.97808    111.68478            0   0.55436534 
9.888954 9.044376 13.509040
10.173442 8.739037 14.426392
9.754615 10.027224 13.517018
10.683487 11.654319 13.243188
10.235908 12.385521 12.719339
11.613632 11.517716 12.909316
      33    204.37819     124.0698            0   0.60921256 
9.890381 9.041142 13.507499
10.161224 8.732386 14.427832
9.766448 10.025363 13.514507
10.682763 11.657957 13.245103
10.229418 12.385800 12.721535
11.609361 11.519542 12.902238
      34    223.27227    138.98679            0   0.66553222 
9.891686 9.037699 13.506006
10.148771 8.725750 14.429204
9.780929 10.023500 13.511414
10.682003 11.661824 13.247027
10.223357 12.386499 12.723681
11.604729 11.520608 12.894983
      35    242.44428    156.11761            0   0.72268036 
9.892875 9.034061 13.504554
10.136084 8.719172 14.430510
9.797989 10.021525 13.507814
10.681211 11.665910 13.248957
10.217696 12.387603 12.725780
11.599734 11.520945 12.887571
      36    261.52123    174.87803            0   0.77954512 
9.893952 9.030245 13.503139
10.123168 8.712697 14.431753
9.817478 10.019311 13.503790
10.680391 11.670202 13.250894
10.212387 12.389076 12.727834
11.594378 11.520606 12.880020
      37    278.75194    192.77162            0    0.8309066 
9.894949 9.026295 13.501746
10.110070 8.706414 14.432927
9.838737 10.016716 13.499500
10.679558 11.674665 13.252844
10.207335 12.390792 12.729807
11.588666 11.519637 12.872333
      38    293.90823    209.03574            0   0.87608459 
9.895870 9.022224 13.500370
10.096797 8.700349 14.434032
9.861652 10.013638 13.495001
10.678717 11.679287 13.254805
10.202494 12.392718 12.731710
11.582602 11.518098 12.864536
      39    308.32709    225.21386            0    0.9190645 
9.896720 9.018050 13.499009
10.083348 8.694527 14.435066
9.886106 10.009973 13.490346
10.677872 11.684054 13.256774
10.197816 12.394824 12.733560
11.576194 11.516063 12.856653
      40    321.96205    241.07613            0    0.9597077 
9.897505 9.013785 13.497660
10.069722 8.688966 14.436028
9.911976 10.005624 13.485592
10.677028 11.688955 13.258747
10.193249 12.397080 12.735377
11.569455 11.513615 12.848712
      41    334.78404    256.37009            0   0.99792762 
9.898229 9.009445 13.496320
10.055913 8.683682 14.436912
9.939123 10.000498 13.480797
10.676191 11.693976 13.260722
10.188743 12.399457 12.737185
11.562406 11.510848 12.840738
      42    347.28475    272.01486            0    1.0351899 
9.898891 9.005036 13.494989
10.041926 8.678680 14.437715
9.967660 9.994485 13.475975
10.675357 11.699113 13.262695
10.184304 12.401975 12.739004
11.555042 11.507779 12.832760
      43     359.5451    288.15778            0    1.0717356 
9.899493 9.000573 13.493664
10.027766 8.673961 14.438424
9.997486 9.987483 13.471189
10.674527 11.704355 13.264660
10.179911 12.404634 12.740861
11.547387 11.504488 12.824810
      44    370.95009    303.08499            0    1.1057318 
9.900046 8.996067 13.492344
10.013430 8.669540 14.439036
10.028340 9.979415 13.466510
10.673709 11.709688 13.266613
10.175506 12.407395 12.742782
11.539473 11.501085 12.816906
      45    381.22883    315.62012            0    1.1363707 
9.900562 8.991529 13.491026
9.998920 8.665430 14.439543
10.059890 9.970238 13.462016
10.672914 11.715100 13.268550
10.171024 12.410216 12.744794
11.531345 11.497694 12.809062
      46    390.11583    324.52506            0    1.1628612 
9.901058 8.986965 13.489705
9.984236 8.661641 14.439939
10.091670 9.959976 13.457807
10.672155 11.720573 13.270466
10.166376 12.413030 12.746928
11.523068 11.494480 12.801288
      47    397.39675    328.80034            0    1.1845642 
9.901552 8.982382 13.488380
9.969389 8.658176 14.440214
10.123189 9.948712 13.453977
10.671445 11.726094 13.272357
10.161484 12.415775 12.749213
11.514710 11.491595 12.793593
      48    402.91074    327.91525            0    1.2010004 
9.902063 8.977778 13.487047
9.954390 8.655036 14.440356
10.153894 9.936608 13.450623
10.670800 11.731644 13.274216
10.156264 12.418381 12.751679
11.506352 11.489196 12.785983
      49    406.42213    321.42836            0    1.2114672 
9.902612 8.973153 13.485703
9.939260 8.652214 14.440352
10.183190 9.923911 13.447838
10.670235 11.737208 13.276041
10.150629 12.420767 12.754354
11.498083 11.487447 12.778460
      50    407.96033    309.69887            0    1.2160523 
9.903216 8.968497 13.484348
9.924016 8.649691 14.440188
10.210515 9.910927 13.445702
10.669765 11.742767 13.277826
10.144500 12.422856 12.757271
11.489997 11.486508 12.771022
      51    408.67822    295.10303            0    1.2181921 
9.903882 8.963795 13.482984
9.908660 8.647423 14.439847
10.235596 9.897908 13.444256
10.669399 11.748321 13.279564
10.137841 12.424625 12.760468
11.482175 11.486511 12.763667
      52    409.51351    279.99925            0     1.220682 
9.904615 8.959032 13.481615
9.893188 8.645368 14.439312
10.258222 9.885105 13.443520
10.669142 11.753864 13.281252
10.130624 12.426046 12.763978
11.474683 11.487563 12.756383
      53    410.34373    265.38119            0    1.2231567 
9.905418 8.954196 13.480242
9.877591 8.643481 14.438564
10.278243 9.872756 13.443496
10.668999 11.759394 13.282885
10.122831 12.427092 12.767832
11.467572 11.489743 12.749154
      54    411.08178    252.11912            0    1.2253567 
9.906295 8.949279 13.478871
9.861859 8.641720 14.437585
10.295562 9.861072 13.444166
10.668972 11.764905 13.284463
10.114454 12.427739 12.772054
11.460881 11.493111 12.741962
      55    411.66289    240.90823            0    1.2270889 
9.907247 8.944275 13.477506
9.845977 8.640039 14.436352
10.310126 9.850235 13.445499
10.669061 11.770394 13.285983
10.105495 12.427959 12.776666
11.454634 11.497706 12.734789
      56    412.05474    232.27055            0    1.2282569 
9.908275 8.939182 13.476151
9.829929 8.638393 14.434842
10.321922 9.840388 13.447446
10.669266 11.775858 13.287446
10.095962 12.427724 12.781686
11.448842 11.503554 12.727616
      57    412.20669    226.50748            0    1.2287098 
9.909381 8.934000 13.474812
9.813702 8.636735 14.433028
10.330961 9.831637 13.449946
10.669584 11.781292 13.288852
10.085876 12.427013 12.787125
11.443506 11.510665 12.720428
      58    412.04674    223.72308            0    1.2282331 
9.910566 8.928734 13.473494
9.797282 8.635017 14.430885
10.337274 9.824053 13.452927
10.670013 11.786693 13.290202
10.075266 12.425803 12.792994
11.438614 11.519041 12.713215
      59     411.5259    223.89751            0    1.2266805 
9.911830 8.923389 13.472203
9.780657 8.633191 14.428383
10.340911 9.817669 13.456308
10.670547 11.792058 13.291496
10.064171 12.424077 12.799298
11.434147 11.528670 12.705970
      60    410.59768    226.88837            0    1.2239137 
9.913174 8.917974 13.470946
9.763819 8.631208 14.425492
10.341931 9.812484 13.460001
10.671182 11.797382 13.292737
10.052636 12.421821 12.806038
11.430079 11.539535 12.698691
      61     409.2196    232.45351            0    1.2198059 
9.914599 8.912501 13.469729
9.746765 8.629016 14.422182
10.340408 9.808465 13.463909
10.671913 11.802662 13.293926
10.040714 12.419024 12.813211
11.426373 11.551611 12.691380
      62    407.35509    240.26934            0    1.2142481 
9.916104 8.906982 13.468557
9.729495 8.626567 14.418423
10.336426 9.805552 13.467934
10.672731 11.807894 13.295064
10.028463 12.415679 12.820811
11.422992 11.564866 12.684044
      63    404.97516    249.94468            0     1.207154 
9.917689 8.901432 13.467438
9.712016 8.623810 14.414183
10.330083 9.803657 13.471975
10.673631 11.813076 13.296153
10.015946 12.411787 12.828825
11.419890 11.579261 12.676695
      64    402.04676    261.01417            0     1.198425 
9.919352 8.895866 13.466378
9.694341 8.620698 14.409433
10.321499 9.802667 13.475933
10.674604 11.818203 13.297196
10.003234 12.407355 12.837237
11.417018 11.594748 12.669351
      65    398.54637    272.97155            0     1.187991 
9.921091 8.890303 13.465383
9.676490 8.617184 14.404146
10.310807 9.802452 13.479710
10.675642 11.823273 13.298194
9.990397 12.402397 12.846027
11.414325 11.611274 12.662031
      66     394.4224    285.27766            0    1.1756983 
9.922902 8.884759 13.464458
9.658488 8.613225 14.398296
10.298164 9.802869 13.483221
10.676734 11.828279 13.299148
9.977518 12.396951 12.855178
11.411763 11.628789 12.654760
      67    389.68402    297.38628            0     1.161574 
9.924780 8.879252 13.463606
9.640370 8.608783 14.391861
10.283749 9.803764 13.486387
10.677871 11.833220 13.300061
9.964672 12.391052 12.864664
11.409281 11.647228 12.647568
      68    384.40031    308.75809            0    1.1458243 
9.926718 8.873799 13.462833
9.622177 8.603831 14.384826
10.267772 9.804975 13.489138
10.679043 11.838090 13.300933
9.951935 12.384743 12.874454
11.406828 11.666521 12.640484
      69    378.59839    318.84212            0    1.1285299 
9.928708 8.868415 13.462140
9.603956 8.598350 14.377181
10.250468 9.806345 13.491422
10.680238 11.842888 13.301768
9.939380 12.378081 12.884516
11.404355 11.686589 12.633543
      70    372.31535    327.12275            0    1.1098013 
9.930740 8.863115 13.461527
9.585762 8.592329 14.368922
10.232096 9.807721 13.493208
10.681445 11.847611 13.302566
9.927079 12.371130 12.894814
11.401818 11.707350 12.626778
      71    365.59818    333.14745            0    1.0897787 
9.932801 8.857911 13.460994
9.567652 8.585772 14.360052
10.212943 9.808962 13.494486
10.682652 11.852255 13.303329
9.915101 12.363966 12.905311
11.399177 11.728715 12.620226
      72    358.52251    336.52849            0    1.0686875 
9.934880 8.852812 13.460537
9.549686 8.578693 14.350584
10.193317 9.809945 13.495274
10.683847 11.856819 13.304058
9.903509 12.356680 12.915970
11.396400 11.750591 12.613925
      73    351.20447    336.76639            0    1.0468738 
9.936961 8.847825 13.460151
9.531931 8.571136 14.340545
10.173576 9.810559 13.495606
10.685016 11.861302 13.304755
9.892365 12.349372 12.926745
11.393452 11.772848 12.607910
      74    343.69554    333.80689            0    1.0244911 
9.939031 8.842953 13.459830
9.514440 8.563142 14.329961
10.154040 9.810731 13.495555
10.686147 11.865701 13.305422
9.881716 12.342146 12.937601
11.390318 11.795396 12.602215
      75    336.02054    328.02346            0    1.0016134 
9.941077 8.838197 13.459565
9.497264 8.554762 14.318863
10.135020 9.810419 13.495217
10.687228 11.870015 13.306057
9.871600 12.335105 12.948507
11.386991 11.818149 12.596873
      76    328.25797    319.69357            0   0.97847464 
9.943086 8.833556 13.459346
9.480442 8.546058 14.307288
10.116812 9.809603 13.494708
10.688250 11.874241 13.306660
9.862043 12.328351 12.959433
11.383471 11.841025 12.591913
      77     320.2907    311.60925            0   0.95472574 
9.945061 8.829030 13.459175
9.463971 8.536970 14.295209
10.099246 9.808370 13.494106
10.689225 11.878376 13.307229
9.852950 12.321747 12.970380
11.379768 11.864141 12.587336
      78     312.3138    304.22208            0   0.93094811 
9.946994 8.824615 13.459044
9.447867 8.527561 14.282652
10.082534 9.806725 13.493515
10.690147 11.882423 13.307763
9.844334 12.315368 12.981328
11.375876 11.887419 12.583159
      79    304.69534    295.37868            0   0.90823892 
9.948877 8.820301 13.458941
9.432144 8.517916 14.269651
10.066908 9.804682 13.493050
10.691008 11.886383 13.308261
9.836215 12.309320 12.992262
11.371795 11.910769 12.579403
      80    297.46563    285.46467            0   0.88668855 
9.950705 8.816079 13.458861
9.416810 8.508108 14.256238
10.052508 9.802275 13.492812
10.691802 11.890259 13.308723
9.828594 12.303673 13.003170
11.367531 11.934122 12.576081
      81    290.60842    275.09018            0   0.86624849 
9.952475 8.811939 13.458795
9.401866 8.498220 14.242446
10.039445 9.799549 13.492889
10.692525 11.894053 13.309150
9.821466 12.298490 13.014043
11.363097 11.957411 12.573203
      82    284.09337    264.54936            0   0.84682838 
9.954186 8.807872 13.458734
9.387311 8.488334 14.228310
10.027800 9.796549 13.493363
10.693173 11.897767 13.309542
9.814821 12.293828 13.024877
11.358505 11.980571 12.570776
      83    277.92667    254.09739            0   0.82844662 
9.955837 8.803867 13.458672
9.373138 8.478532 14.213866
10.017631 9.793318 13.494305
10.693742 11.901403 13.309899
9.808647 12.289740 13.035670
11.353777 12.003542 12.568804
      84     272.1164    243.94478            0   0.81112729 
9.957429 8.799916 13.458602
9.359337 8.468900 14.199152
10.008976 9.789896 13.495776
10.694230 11.904964 13.310221
9.802932 12.286274 13.046423
11.348934 12.026263 12.567289
      85    266.72821    234.14097            0   0.79506614 
9.958962 8.796007 13.458516
9.345895 8.459534 14.184211
10.001895 9.786315 13.497834
10.694631 11.908452 13.310510
9.797668 12.283500 13.057139
11.344006 12.048662 12.566230
      86    262.38894    224.29331            0   0.78213158 
9.960434 8.792112 13.458405
9.332818 8.450690 14.169200
9.996532 9.782584 13.500363
10.694938 11.911882 13.310774
9.792851 12.281482 13.067804
11.339030 12.070646 12.565630
      87    259.01495    214.80761            0   0.77207435 
9.961848 8.788222 13.458262
9.320081 8.442439 14.154156
9.992867 9.778728 13.503394
10.695149 11.915255 13.311014
9.788460 12.280248 13.078429
11.334037 12.092172 12.565479
      88    255.97999    206.38905            0   0.76302774 
9.963208 8.784333 13.458083
9.307654 8.434850 14.139120
9.990878 9.774760 13.506945
10.695262 11.918576 13.311231
9.784479 12.279822 13.089023
11.329059 12.113185 12.565759
      89     253.2589    199.08372            0   0.75491668 
9.964519 8.780437 13.457865
9.295511 8.427981 14.124126
9.990522 9.770688 13.511021
10.695275 11.921847 13.311427
9.780891 12.280220 13.099595
11.324127 12.133647 12.566454
      90    250.78986    192.93406            0   0.74755693 
9.965787 8.776532 13.457604
9.283630 8.421885 14.109207
9.991749 9.766512 13.515621
10.695186 11.925070 13.311604
9.777681 12.281446 13.110157
11.319274 12.153525 12.567546
      91    248.53235    187.91712            0   0.74082774 
9.967016 8.772615 13.457297
9.271989 8.416606 14.094396
9.994501 9.762221 13.520728
10.694996 11.928246 13.311764
9.774835 12.283503 13.120719
11.314532 12.172790 12.569017
      92    246.45091    183.99864            0   0.73462334 
9.968210 8.768684 13.456944
9.260572 8.412183 14.079724
9.998718 9.757802 13.526327
10.694701 11.931379 13.311908
9.772341 12.286384 13.131290
11.309934 12.191424 12.570851
      93    244.49811    181.10664            0   0.72880242 
9.969375 8.764740 13.456542
9.249366 8.408649 14.065218
10.004329 9.753237 13.532381
10.694303 11.934468 13.312038
9.770189 12.290077 13.141876
11.305508 12.209409 12.573028
      94    242.61573    179.12361            0    0.7231914 
9.970515 8.760782 13.456091
9.238364 8.406031 14.050907
10.011259 9.748502 13.538848
10.693801 11.937514 13.312157
9.768370 12.294562 13.152484
11.301283 12.226728 12.575529
      95    240.75259    177.92583            0   0.71763773 
9.971634 8.756814 13.455591
9.227560 8.404352 14.036818
10.019427 9.743576 13.545673
10.693194 11.940520 13.312268
9.766876 12.299811 13.163117
11.297283 12.243371 12.578335
      96    238.86301    177.33468            0   0.71200528 
9.972737 8.752836 13.455045
9.216954 8.403626 14.022974
10.028734 9.738439 13.552775
10.692484 11.943486 13.312374
9.765698 12.305781 13.173774
11.293525 12.259324 12.581418
      97    236.97768    177.17297            0   0.70638545 
9.973828 8.748851 13.454453
9.206549 8.403860 14.009397
10.039070 9.733072 13.560060
10.691673 11.946414 13.312478
9.764825 12.312426 13.184456
11.290023 12.274585 12.584755
      98    235.13576    177.33139            0   0.70089503 
9.974911 8.744860 13.453819
9.196351 8.405052 13.996105
10.050329 9.727461 13.567437
10.690763 11.949307 13.312585
9.764254 12.319704 13.195163
11.286790 12.289155 12.588324
      99     233.3027    177.68292            0   0.69543104 
9.975989 8.740866 13.453147
9.186368 8.407198 13.983112
10.062406 9.721596 13.574806
10.689756 11.952165 13.312698
9.763977 12.327566 13.205890
11.283833 12.303036 12.592100
     100    231.44337    178.09844            0   0.68988872 
9.977066 8.736871 13.452440
9.176607 8.410288 13.970425
10.075200 9.715475 13.582071
10.688656 11.954992 13.312821
9.763988 12.335961 13.216631
11.281155 12.316226 12.596056
     101    229.44077    178.38407            0   0.68391935 
9.978146 8.732879 13.451703
9.167076 8.414299 13.958036
10.088583 9.709107 13.589118
10.687468 11.957787 13.312959
9.764268 12.344799 13.227379
11.278742 12.328737 12.600154
     102     226.7271    177.96024            0   0.67583042 
9.979233 8.728909 13.450941
9.157828 8.419071 13.945910
10.102328 9.702521 13.595946
10.686201 11.960546 13.313113
9.764800 12.353988 13.238122
11.276578 12.340587 12.604365
     103    223.42675    176.81797            0   0.66599269 
9.980328 8.724963 13.450157
9.148871 8.424584 13.934049
10.116353 9.695736 13.602463
10.684858 11.963269 13.313286
9.765578 12.363484 13.248851
11.274658 12.351781 12.608664
     104    220.12617    175.44152            0   0.65615429 
9.981434 8.721042 13.449356
9.140213 8.430817 13.922448
10.130586 9.688771 13.608583
10.683442 11.965957 13.313484
9.766596 12.373245 13.259555
11.272975 12.362325 12.613025
     105    216.82621    173.84294            0   0.64631774 
9.982553 8.717147 13.448542
9.131861 8.437747 13.911098
10.144956 9.681654 13.614225
10.681958 11.968611 13.313708
9.767846 12.383231 13.270223
11.271519 12.372225 12.617423
     106    213.53921    172.06994            0   0.63651983 
9.983685 8.713277 13.447719
9.123821 8.445351 13.899990
10.159404 9.674411 13.619313
10.680407 11.971233 13.313963
9.769325 12.393409 13.280845
11.270280 12.381489 12.621837
     107     210.2995    170.20699            0   0.62686286 
9.984832 8.709434 13.446892
9.116099 8.453606 13.889107
10.173878 9.667073 13.623778
10.678792 11.973822 13.314251
9.771025 12.403751 13.291410
11.269249 12.390129 12.626247
     108    207.11758    168.31581            0   0.61737817 
9.985994 8.705617 13.446066
9.108700 8.462487 13.878434
10.188336 9.659670 13.627558
10.677117 11.976381 13.314574
9.772944 12.414230 13.301910
11.268415 12.398157 12.630637
     109     203.9911    166.45592            0   0.60805873 
9.987172 8.701825 13.445243
9.101629 8.471971 13.867950
10.202739 9.652233 13.630594
10.675384 11.978908 13.314934
9.775077 12.424824 13.312338
11.267769 12.405586 12.634990
     110    200.92923    164.69086            0   0.59893186 
9.988365 8.698060 13.444429
9.094891 8.482032 13.857631
10.217056 9.644793 13.632834
10.673595 11.981403 13.315334
9.777420 12.435515 13.322686
11.267301 12.412430 12.639295
     111    197.94002     163.0821            0   0.59002161 
9.989574 8.694320 13.443628
9.088490 8.492648 13.847452
10.231262 9.637378 13.634229
10.671752 11.983867 13.315775
9.779970 12.446286 13.332949
11.267000 12.418703 12.643541
     112    195.04136    161.70802            0   0.58138124 
9.990799 8.690606 13.442844
9.082429 8.503794 13.837390
10.245342 9.630012 13.634738
10.669858 11.986300 13.316256
9.782728 12.457128 13.343123
11.266859 12.424419 12.647720
     113    192.23742    160.61936            0   0.57302324 
9.992038 8.686917 13.442081
9.076715 8.515445 13.827414
10.259280 9.622719 13.634323
10.667913 11.988701 13.316780
9.785690 12.468030 13.353204
11.266869 12.429595 12.651826
     114    189.51792    159.83466            0   0.56491693 
9.993291 8.683255 13.441343
9.071351 8.527572 13.817493
10.273066 9.615517 13.632950
10.665921 11.991071 13.317346
9.788856 12.478981 13.363190
11.267022 12.434246 12.655854
     115    186.88071    159.38209            0    0.5570559 
9.994557 8.679620 13.440635
9.066341 8.540146 13.807597
10.286691 9.608422 13.630592
10.663881 11.993407 13.317955
9.792224 12.489971 13.373081
11.267307 12.438389 12.659800
     116    184.31364    159.30116            0   0.54940395 
9.995836 8.676013 13.439959
9.061692 8.553133 13.797697
10.300157 9.601441 13.627235
10.661796 11.995710 13.318605
9.795797 12.500997 13.382880
11.267721 12.442044 12.663669
     117    181.85491     159.6378            0   0.54207496 
9.997125 8.672437 13.439318
9.057410 8.566506 13.787765
10.313467 9.594576 13.622858
10.659666 11.997980 13.319297
9.799578 12.512060 13.392583
11.268261 12.445217 12.667460
     118    179.49422    160.34832            0   0.53503818 
9.998423 8.668892 13.438716
9.053499 8.580221 13.777768
10.326615 9.587829 13.617449
10.657493 12.000217 13.320030
9.803566 12.523149 13.402193
11.268915 12.447927 12.671171
     119    177.16503    161.34334            0   0.52809529 
9.999730 8.665383 13.438157
9.049963 8.594232 13.767673
10.339597 9.581197 13.611002
10.655279 12.002419 13.320803
9.807760 12.534252 13.411713
11.269675 12.450191 12.674802
     120    174.59827    161.58324            0   0.52044428 
10.001044 8.661924 13.437636
9.046835 8.608291 13.757495
10.352267 9.574715 13.603632
10.653035 12.004585 13.321611
9.812142 12.545320 13.421142
11.270527 12.452064 12.678366
     121    171.75923    160.97056            0   0.51198163 
10.002364 8.658520 13.437156
9.044105 8.622345 13.747204
10.364620 9.568379 13.595352
10.650762 12.006714 13.322452
9.816708 12.556335 13.430488
11.271460 12.453572 12.681865
     122    168.89512    160.48437            0   0.50344428 
10.003691 8.655174 13.436718
9.041760 8.636345 13.736778
10.376657 9.562179 13.586173
10.648462 12.008806 13.323325
9.821454 12.567287 13.439759
11.272463 12.454731 12.685301
     123    166.02683    160.15708            0   0.49489445 
10.005022 8.651891 13.436324
9.039791 8.650243 13.726194
10.388382 9.556100 13.576111
10.646138 12.010858 13.324227
9.826380 12.578166 13.448961
11.273528 12.455559 12.688677
     124    163.16032    159.99224            0   0.48634994 
10.006360 8.648675 13.435974
9.038182 8.663998 13.715433
10.399802 9.550123 13.565186
10.643791 12.012871 13.325158
9.831484 12.588964 13.458103
11.274647 12.456072 12.691996
     125    160.30064    159.98145            0   0.47782575 
10.007702 8.645532 13.435669
9.036920 8.677567 13.704477
10.410927 9.544222 13.553425
10.641422 12.014844 13.326116
9.836763 12.599670 13.467194
11.275812 12.456287 12.695262
     126    157.45173    160.10409            0   0.46933369 
10.009048 8.642465 13.435410
9.035992 8.690910 13.693313
10.421766 9.538369 13.540859
10.639031 12.016775 13.327097
9.842217 12.610276 13.476241
11.277018 12.456221 12.698480
     127    154.61632    160.32726            0   0.46088187 
10.010399 8.639479 13.435195
9.035381 8.703989 13.681930
10.432332 9.532534 13.527529
10.636621 12.018664 13.328101
9.847845 12.620773 13.485255
11.278259 12.455889 12.701655
     128    151.79336    160.59919            0   0.45246718 
10.011753 8.636580 13.435024
9.035073 8.716767 13.670322
10.442638 9.526682 13.513486
10.634191 12.020509 13.329124
9.853645 12.631150 13.494249
11.279531 12.455313 12.704798
     129     148.9809    160.83987            0   0.44408375 
10.013111 8.633770 13.434894
9.035050 8.729203 13.658477
10.452689 9.520782 13.498780
10.631745 12.022312 13.330165
9.859611 12.641392 13.503229
11.280818 12.454507 12.707902
     130    146.17972    160.99239            0   0.43573399 
10.014472 8.631056 13.434805
9.035298 8.741263 13.646399
10.462495 9.514802 13.483471
10.629282 12.024072 13.331221
9.865739 12.651486 13.512203
11.282117 12.453489 12.710973
     131    143.38889    161.00573            0   0.42741504 
10.015836 8.628440 13.434751
9.035801 8.752914 13.634096
10.472070 9.508707 13.467633
10.626805 12.025788 13.332289
9.872025 12.661421 13.521181
11.283424 12.452275 12.714018
     132    140.60465    160.80273            0   0.41911575 
10.017203 8.625927 13.434730
9.036545 8.764124 13.621580
10.481421 9.502469 13.451343
10.624314 12.027461 13.333368
9.878466 12.671184 13.530171
11.284735 12.450885 12.717045
     133    137.82196    160.30281            0    0.4108211 
10.018572 8.623520 13.434737
9.037515 8.774864 13.608870
10.490559 9.496061 13.434692
10.621810 12.029089 13.334454
9.885055 12.680763 13.539183
11.286048 12.449337 12.720061
     134    135.03465    159.42441            0   0.40251264 
10.019943 8.621222 13.434765
9.038695 8.785109 13.595991
10.499491 9.489465 13.417776
10.619295 12.030673 13.335543
9.891788 12.690143 13.548225
11.287360 12.447648 12.723073
     135    132.24177    157.86376            0   0.39418759 
10.021317 8.619032 13.434809
9.040057 8.794752 13.582962
10.508156 9.482702 13.400729
10.616773 12.032217 13.336630
9.898665 12.699308 13.557331
11.288669 12.445863 12.726096
     136    129.42177    155.57595            0   0.38578172 
10.022694 8.616950 13.434862
9.041581 8.803776 13.569816
10.516563 9.475771 13.383664
10.614246 12.033721 13.337710
9.905680 12.708244 13.566518
11.289976 12.444003 12.729140
     137    126.55808    152.74836            0   0.37724559 
10.024074 8.614978 13.434916
9.043251 8.812166 13.556586
10.524716 9.468678 13.366702
10.611716 12.035185 13.338780
9.912825 12.716930 13.575793
11.291275 12.442087 12.732208
     138    123.64792    149.34253            0   0.36857097 
10.025456 8.613114 13.434964
9.045052 8.819918 13.543312
10.532623 9.461440 13.349968
10.609183 12.036609 13.339837
9.920089 12.725349 13.585167
11.292563 12.440134 12.735304
     139    120.69828    145.34238            0   0.35977865 
10.026840 8.611355 13.434997
9.046969 8.827036 13.530044
10.540298 9.454077 13.333607
10.606649 12.037994 13.340875
9.927469 12.733486 13.594660
11.293846 12.438168 12.738445
     140    117.73467     140.8055            0   0.35094468 
10.028225 8.609698 13.435006
9.048989 8.833530 13.516834
10.547747 9.446623 13.317729
10.604115 12.039342 13.341892
9.934955 12.741325 13.604274
11.295127 12.436207 12.741642
     141    114.77775    135.84641            0   0.34213066 
10.029612 8.608138 13.434984
9.051101 8.839416 13.503728
10.554976 9.439114 13.302430
10.601582 12.040652 13.342884
9.942535 12.748850 13.614016
11.296410 12.434265 12.744903
     142    111.83978    130.57822            0   0.33337315 
10.031000 8.606670 13.434926
9.053289 8.844712 13.490764
10.561986 9.431595 13.287782
10.599051 12.041927 13.343851
9.950192 12.756048 13.623876
11.297693 12.432352 12.748227
     143    108.92865     125.1153            0    0.3246956 
10.032389 8.605288 13.434826
9.055544 8.849442 13.477975
10.568782 9.424111 13.273852
10.596524 12.043169 13.344790
9.957916 12.762904 13.633861
11.298977 12.430478 12.751621
     144    106.04864    119.58029            0   0.31611085 
10.033779 8.603987 13.434682
9.057852 8.853633 13.465388
10.575367 9.416707 13.260701
10.594002 12.044377 13.345700
9.965701 12.769406 13.643982
11.300266 12.428657 12.755090
     145      103.207    114.06816            0   0.30764046 
10.035171 8.602761 13.434489
9.060205 8.857315 13.453025
10.581745 9.409432 13.248375
10.591486 12.045554 13.346578
9.973538 12.775542 13.654243
11.301558 12.426897 12.758638
     146    100.40901    108.65084            0   0.29930018 
10.036563 8.601604 13.434245
9.062592 8.860517 13.440906
10.587920 9.402332 13.236913
10.588976 12.046701 13.347424
9.981418 12.781303 13.664651
11.302855 12.425205 12.762265
     147    97.659015    103.39591            0   0.29110297 
10.037956 8.600509 13.433948
9.065006 8.863271 13.429043
10.593893 9.395452 13.226343
10.586473 12.047818 13.348235
9.989335 12.786678 13.675209
11.304155 12.423587 12.765972
     148    94.960328     98.36022            0    0.2830587 
10.039351 8.599473 13.433597
9.067439 8.865605 13.417450
10.599667 9.388838 13.216690
10.583978 12.048908 13.349012
9.997281 12.791658 13.685924
11.305458 12.422045 12.769758
     149    92.315338    93.591053            0   0.27517449 
10.040747 8.598488 13.433189
9.069885 8.867549 13.406136
10.605244 9.382529 13.207973
10.581493 12.049971 13.349753
10.005252 12.796233 13.696799
11.306765 12.420585 12.773623
     150     89.72567    89.127368            0   0.26745518 
10.042145 8.597551 13.432725
9.072337 8.869133 13.395108
10.610623 9.376567 13.200204
10.579016 12.051009 13.350457
10.013242 12.800395 13.707837
11.308072 12.419207 12.777564
     151    87.192305    85.000955            0    0.2599037 
10.043544 8.596656 13.432204
9.074790 8.870385 13.384371
10.615805 9.370985 13.193393
10.576549 12.052023 13.351124
10.021245 12.804135 13.719043
11.309381 12.417914 12.781580
     152    84.715693    81.237482            0   0.25252139 
10.044944 8.595799 13.431626
9.077239 8.871330 13.373931
10.620788 9.365818 13.187547
10.574093 12.053013 13.351755
10.029256 12.807445 13.730419
11.310690 12.416706 12.785669
     153    82.295856    77.857423            0   0.24530832 
10.046347 8.594976 13.430990
9.079681 8.871994 13.363789
10.625571 9.361094 13.182671
10.571648 12.053982 13.352347
10.037272 12.810316 13.741965
11.311996 12.415584 12.789828
     154    79.932227    74.887004            0   0.23826279 
10.047752 8.594183 13.430297
9.082110 8.872401 13.353948
10.630151 9.356839 13.178768
10.569214 12.054930 13.352902
10.045290 12.812739 13.753688
11.313302 12.414548 12.794057
     155    77.624349    72.339071            0   0.23138344 
10.049160 8.593417 13.429546
9.084524 8.872572 13.344410
10.634523 9.353076 13.175838
10.566791 12.055858 13.353418
10.053306 12.814706 13.765586
11.314603 12.413599 12.798352
     156    75.371829    70.211703            0    0.2246691 
10.050571 8.592675 13.428738
9.086918 8.872527 13.335175
10.638682 9.349824 13.173880
10.564381 12.056767 13.353896
10.061315 12.816207 13.777659
11.315899 12.412735 12.802709
     157    73.173721      68.5103            0   0.21811696 
10.051986 8.591955 13.427872
9.089288 8.872283 13.326242
10.642619 9.347097 13.172893
10.561984 12.057658 13.354337
10.069313 12.817235 13.789904
11.317187 12.411954 12.807124
     158    71.029044    67.238093            0   0.21172409 
10.053406 8.591255 13.426951
9.091632 8.871855 13.317611
10.646326 9.344906 13.172873
10.559600 12.058533 13.354740
10.077295 12.817780 13.802318
11.318464 12.411257 12.811591
     159    68.936852    66.396428            0   0.20548766 
10.054830 8.590574 13.425972
9.093945 8.871257 13.309280
10.649793 9.343260 13.173816
10.557230 12.059391 13.355107
10.085258 12.817834 13.814896
11.319725 12.410642 12.816105
     160    66.896302    65.984983            0   0.19940517 
10.056261 8.589910 13.424938
9.096224 8.870499 13.301248
10.653008 9.342162 13.175721
10.554875 12.060234 13.355438
10.093197 12.817389 13.827634
11.320969 12.410108 12.820660
     161    64.906006    66.006182            0   0.19347247 
10.057698 8.589263 13.423848
9.098464 8.869590 13.293514
10.655958 9.341613 13.178583
10.552535 12.061061 13.355734
10.101108 12.816434 13.840528
11.322191 12.409655 12.825250
     162    62.965504    66.457646            0   0.18768821 
10.059144 8.588633 13.422702
9.100662 8.868537 13.286074
10.658627 9.341609 13.182399
10.550211 12.061874 13.355995
10.108989 12.814962 13.853570
11.323386 12.409282 12.829870
     163    61.075319    67.330586            0   0.18205392 
10.060598 8.588020 13.421501
9.102814 8.867343 13.278926
10.661000 9.342144 13.187164
10.547904 12.062673 13.356223
10.116834 12.812965 13.866753
11.324552 12.408990 12.834512
     164    59.235535     68.61865            0   0.17656988 
10.062063 8.587425 13.420246
9.104915 8.866011 13.272066
10.663059 9.343206 13.192873
10.545614 12.063458 13.356419
10.124641 12.810434 13.880068
11.325682 12.408778 12.839168
     165    57.446901    70.326634            0    0.1712383 
10.063539 8.586849 13.418936
9.106961 8.864541 13.265492
10.664785 9.344781 13.199524
10.543342 12.064229 13.356583
10.132409 12.807362 13.893508
11.326772 12.408645 12.843831
     166    55.710301     72.44532            0   0.16606182 
10.065028 8.586294 13.417571
9.108947 8.862929 13.259198
10.666158 9.346853 13.207110
10.541089 12.064986 13.356719
10.140134 12.803741 13.907061
11.327819 12.408591 12.848495
     167    54.026626    74.949992            0   0.16104311 
10.066532 8.585763 13.416153
9.110870 8.861172 13.253181
10.667156 9.349398 13.215624
10.538854 12.065729 13.356826
10.147815 12.799565 13.920717
11.328814 12.408618 12.853149
     168    52.397499    77.826462            0   0.15618699 
10.068052 8.585257 13.414682
9.112725 8.859262 13.247435
10.667756 9.352393 13.225058
10.536640 12.066458 13.356906
10.155447 12.794829 13.934461
11.329754 12.408728 12.857785
     169     50.82501    81.058115            0    0.1514997 
10.069589 8.584780 13.413159
9.114508 8.857191 13.241955
10.667936 9.355808 13.235402
10.534446 12.067173 13.356963
10.163029 12.789526 13.948279
11.330630 12.408922 12.862394
     170     49.31175    84.625447            0   0.14698896 
10.071145 8.584335 13.411583
9.116213 8.854949 13.236733
10.667670 9.359611 13.246645
10.532274 12.067872 13.356997
10.170557 12.783653 13.962156
11.331437 12.409203 12.866964
     171    47.860843    88.505464            0   0.14266408 
10.072722 8.583925 13.409957
9.117839 8.852523 13.231764
10.666936 9.363767 13.258772
10.530124 12.068555 13.357010
10.178030 12.777208 13.976075
11.332167 12.409574 12.871487
     172    46.475982    92.670926            0   0.13853607 
10.074322 8.583556 13.408280
9.119381 8.849899 13.227037
10.665707 9.368238 13.271763
10.527997 12.069221 13.357006
10.185447 12.770189 13.990018
11.332814 12.410039 12.875953
     173    45.162902    97.093998            0   0.13462203 
10.075945 8.583230 13.406555
9.120836 8.847061 13.222543
10.663960 9.372982 13.285598
10.525894 12.069869 13.356987
10.192808 12.762597 14.003966
11.333372 12.410599 12.880351
     174    43.926652    101.73566            0   0.13093701 
10.077593 8.582954 13.404784
9.122202 8.843992 13.218268
10.661671 9.377954 13.300248
10.523814 12.070498 13.356955
10.200112 12.754435 14.017900
11.333833 12.411259 12.884671
     175    42.771475    106.54547            0   0.12749364 
10.079268 8.582732 13.402967
9.123479 8.840673 13.214201
10.658818 9.383108 13.315678
10.521759 12.071107 13.356913
10.207360 12.745707 14.031798
11.334190 12.412021 12.888903
     176     41.70371    111.46945            0   0.12431084 
10.080972 8.582568 13.401109
9.124665 8.837085 13.210324
10.655380 9.388396 13.331849
10.519729 12.071693 13.356865
10.214551 12.736420 14.045636
11.334437 12.412890 12.893037
     177    40.730523    116.44467            0   0.12140995 
10.082704 8.582470 13.399211
9.125762 8.833207 13.206619
10.651338 9.393768 13.348710
10.517725 12.072256 13.356814
10.221688 12.726584 14.059393
11.334567 12.413868 12.897064
     178    39.860005    121.39876            0    0.1188151 
10.084466 8.582440 13.397278
9.126772 8.829019 13.203064
10.646676 9.399175 13.366201
10.515746 12.072793 13.356762
10.228771 12.716211 14.073044
11.334573 12.414960 12.900973
     179     39.10129    126.25015            0   0.11655352 
10.086260 8.582487 13.395315
9.127699 8.824499 13.199631
10.641382 9.404567 13.384254
10.513792 12.073302 13.356715
10.235803 12.705318 14.086563
11.334450 12.416165 12.904757
     180    38.465601    130.90565            0   0.11465865 
10.088084 8.582614 13.393325
9.128551 8.819625 13.196293
10.635447 9.409901 13.402786
10.511864 12.073781 13.356675
10.242789 12.693924 14.099926
11.334191 12.417484 12.908405
     181    37.964601    135.26773            0   0.11316526 
10.089939 8.582827 13.391316
9.129336 8.814378 13.193013
10.628867 9.415133 13.421705
10.509962 12.074227 13.356648
10.249732 12.682053 14.113106
11.333792 12.418915 12.911910
     182    37.610709    139.24034            0   0.11211038 
10.091826 8.583131 13.389295
9.130065 8.808740 13.189755
10.621644 9.420226 13.440904
10.508084 12.074636 13.356637
10.256638 12.669729 14.126078
11.333248 12.420457 12.915262
     183    37.419037    142.72844            0   0.11153904 
10.093742 8.583530 13.387268
9.130752 8.802695 13.186475
10.613785 9.425152 13.460266
10.506230 12.075007 13.356647
10.263515 12.656984 14.138818
11.332555 12.422102 12.918456
     184    37.406189     145.6456            0   0.11150075 
10.095687 8.584030 13.385244
9.131415 8.796229 13.183127
10.605302 9.429889 13.479664
10.504399 12.075334 13.356682
10.270370 12.643848 14.151303
11.331708 12.423845 12.921482
     185    37.587094    147.81961            0   0.11203999 
10.097659 8.584631 13.383233
9.132075 8.789338 13.179659
10.596222 9.434423 13.498939
10.502590 12.075616 13.356749
10.277208 12.630364 14.163507
11.330708 12.425674 12.924337
     186    37.964499     149.0901            0   0.11316496 
10.099654 8.585333 13.381245
9.132754 8.782023 13.176023
10.586579 9.438750 13.517930
10.500802 12.075850 13.356851
10.284032 12.616576 14.175403
11.329552 12.427581 12.927017
     187       38.533    149.48359            0   0.11485955 
10.101671 8.586135 13.379288
9.133476 8.774289 13.172176
10.576412 9.442878 13.536488
10.499033 12.076036 13.356995
10.290845 12.602531 14.186971
11.328242 12.429557 12.929518
     188    39.287752    149.11512            0   0.11710933 
10.103706 8.587035 13.377371
9.134264 8.766147 13.168084
10.565757 9.446827 13.554482
10.497284 12.076169 13.357183
10.297650 12.588273 14.198192
11.326777 12.431591 12.931840
     189    40.224364    148.11028            0   0.11990119 
10.105756 8.588032 13.375500
9.135142 8.757610 13.163718
10.554652 9.450621 13.571795
10.495552 12.076249 13.357419
10.304450 12.573848 14.209051
11.325157 12.433674 12.933979
     190    41.338905    146.59677            0   0.12322342 
10.107818 8.589120 13.373680
9.136133 8.748695 13.159056
10.543135 9.454294 13.588325
10.493836 12.076274 13.357708
10.311249 12.559302 14.219535
11.323385 12.435797 12.935936
     191    42.627915    144.69809            0   0.12706572 
10.109889 8.590298 13.371916
9.137259 8.739419 13.154081
10.531244 9.457883 13.603984
10.492136 12.076240 13.358051
10.318050 12.544677 14.229637
11.321460 12.437949 12.937708
     192    44.073403    142.63653            0   0.13137444 
10.111967 8.591562 13.370210
9.138540 8.729797 13.148784
10.519004 9.461427 13.618716
10.490450 12.076146 13.358450
10.324858 12.530004 14.239354
11.319378 12.440135 12.939295
     193    45.675306    140.50077            0   0.13614941 
10.114050 8.592907 13.368566
9.139998 8.719849 13.143157
10.506450 9.464965 13.632454
10.488779 12.075990 13.358907
10.331676 12.515327 14.248683
11.317142 12.442342 12.940697
     194    47.458811     138.1621            0    0.1414657 
10.116133 8.594330 13.366986
9.141655 8.709605 13.137196
10.493629 9.468537 13.645121
10.487118 12.075770 13.359425
10.338507 12.500700 14.257617
11.314762 12.444540 12.941915
     195    49.422078    135.69194            0   0.14731783 
10.118215 8.595826 13.365472
9.143530 8.699090 13.130898
10.480578 9.472182 13.656666
10.485468 12.075486 13.360005
10.345354 12.486166 14.266156
11.312242 12.446715 12.942951
     196    51.554255    133.25283            0   0.15367344 
10.120293 8.597391 13.364026
9.145642 8.688327 13.124268
10.467332 9.475938 13.667041
10.483825 12.075136 13.360648
10.352219 12.471766 14.274303
11.309586 12.448847 12.943805
     197    53.947751      130.701            0     0.160808 
10.122365 8.599020 13.362649
9.148014 8.677414 13.117302
10.453990 9.479820 13.676204
10.482185 12.074717 13.361355
10.359108 12.457535 14.282063
11.306818 12.450887 12.944490
     198    56.593794    128.19512            0   0.16869535 
10.124428 8.600712 13.361340
9.150662 8.666367 13.110007
10.440574 9.483861 13.684142
10.480546 12.074229 13.362125
10.366025 12.443490 14.289450
11.303941 12.452823 12.945007
     199    59.397389    126.00362            0   0.17705233 
10.126481 8.602462 13.360101
9.153597 8.655204 13.102389
10.427112 9.488096 13.690819
10.478907 12.073672 13.362959
10.372972 12.429669 14.296471
11.300961 12.454637 12.945355
     200    62.369017    124.09145            0   0.18591019 
10.128521 8.604268 13.358932
9.156832 8.643941 13.094458
10.413634 9.492557 13.696204
10.477267 12.073044 13.363858
10.379947 12.416105 14.303133
11.297881 12.456313 12.945532
     201     65.50616    122.51853            0   0.19526142 
10.130547 8.606125 13.357833
9.160379 8.632591 13.086220
10.400166 9.497273 13.700267
10.475624 12.072345 13.364822
10.386949 12.402834 14.309446
11.294706 12.457835 12.945535
     202    68.865688    120.65893            0   0.20527554 
10.132555 8.608023 13.356808
9.164251 8.621196 13.077676
10.386817 9.502304 13.702802
10.473979 12.071571 13.365865
10.393930 12.390066 14.315367
11.291446 12.459127 12.945331
     203    72.437105    118.77786            0   0.21592125 
10.134542 8.609960 13.355858
9.168458 8.609763 13.068836
10.373607 9.507671 13.703797
10.472331 12.070722 13.366986
10.400893 12.377820 14.320918
11.288104 12.460175 12.944919
     204    76.158434    117.66513            0   0.22701383 
10.136507 8.611933 13.354982
9.173008 8.598294 13.059712
10.360564 9.513389 13.703228
10.470679 12.069797 13.368184
10.407836 12.366126 14.326120
11.284684 12.460966 12.944294
     205    80.037293    117.33714            0   0.23857597 
10.138448 8.613943 13.354179
9.177911 8.586791 13.050319
10.347714 9.519467 13.701070
10.469023 12.068797 13.369461
10.414758 12.355009 14.330990
11.281188 12.461485 12.943452
     206    84.076919    117.84758            0   0.25061733 
10.140364 8.615989 13.353450
9.183176 8.575252 13.040670
10.335083 9.525907 13.697301
10.467361 12.067720 13.370815
10.421656 12.344494 14.335548
11.277619 12.461718 12.942391
     207    88.282539    119.25627            0   0.26315348 
10.142252 8.618072 13.352793
9.188813 8.563670 13.030780
10.322700 9.532700 13.691900
10.465694 12.066567 13.372247
10.428530 12.334597 14.339811
11.273979 12.461652 12.941107
     208    92.659971    121.62018            0   0.27620177 
10.144112 8.620194 13.352209
9.194831 8.552037 13.020666
10.310591 9.539833 13.684848
10.464021 12.065336 13.373756
10.435379 12.325330 14.343799
11.270270 12.461277 12.939600
     209    97.214444    124.97215            0   0.28977779 
10.145939 8.622358 13.351698
9.201243 8.540340 13.010345
10.298786 9.547280 13.676130
10.462341 12.064027 13.375342
10.442205 12.316699 14.347531
11.266494 12.460582 12.937869
     210    101.95178    129.33243            0   0.30389888 
10.147733 8.624567 13.351257
9.208059 8.528565 12.999836
10.287316 9.555009 13.665733
10.460654 12.062640 13.377002
10.449008 12.308708 14.351023
11.262651 12.459557 12.935915
     211    106.87719     134.7087            0    0.3185806 
10.149491 8.626827 13.350887
9.215293 8.516696 12.989161
10.276214 9.562978 13.653647
10.458959 12.061175 13.378737
10.455788 12.301355 14.354290
11.258742 12.458193 12.933739
     212    111.96467    141.08858            0    0.3337454 
10.151209 8.629142 13.350587
9.222959 8.504709 12.978339
10.265509 9.571134 13.639875
10.457257 12.059631 13.380546
10.462541 12.294646 14.357347
11.254754 12.456507 12.931339
     213    117.21977     148.4539            0   0.34940986 
10.152886 8.631519 13.350354
9.231072 8.492585 12.967395
10.255239 9.579418 13.624417
10.455549 12.058005 13.382427
10.469269 12.288574 14.360205
11.250687 12.454494 12.928718
     214    122.67695     156.7619            0   0.36567668 
10.154517 8.633964 13.350187
9.239647 8.480303 12.956357
10.245443 9.587762 13.607288
10.453834 12.056300 13.384379
10.475973 12.283125 14.362878
11.246540 12.452149 12.925883
     215    128.33351    165.92204            0   0.38253781 
10.156100 8.636485 13.350082
9.248699 8.467845 12.945256
10.236163 9.596089 13.588514
10.452110 12.054513 13.386400
10.482653 12.278278 14.365377
11.242315 12.449470 12.922842
     216    134.18394    175.81871            0   0.39997685 
10.157632 8.639090 13.350037
9.258244 8.455192 12.934126
10.227443 9.604314 13.568139
10.450378 12.052646 13.388486
10.489313 12.274009 14.367712
11.238011 12.446454 12.919605
     217    140.27652    185.92484            0   0.41813767 
10.159107 8.641781 13.350050
9.268289 8.442458 12.922951
10.219445 9.612329 13.546253
10.448630 12.050702 13.390634
10.495975 12.270253 14.369897
11.233644 12.443066 12.916185
     218    146.60127    196.03496            0   0.43699054 
10.160523 8.644567 13.350116
9.278846 8.429627 12.911771
10.212209 9.620044 13.522949
10.446863 12.048682 13.392839
10.502641 12.266971 14.371940
11.229215 12.439310 12.912594
     219    153.08408    206.27391            0   0.45631458 
10.161878 8.647456 13.350226
9.289921 8.416683 12.900631
10.205767 9.627371 13.498344
10.445080 12.046585 13.395096
10.509311 12.264119 14.373848
11.224725 12.435197 12.908851
     220    159.70058    216.37193            0   0.47603709 
10.163169 8.650457 13.350372
9.301520 8.403615 12.889580
10.200135 9.634224 13.472584
10.443279 12.044412 13.397401
10.515982 12.261645 14.375627
11.220173 12.430741 12.904973
     221    166.42395    226.02953            0   0.49607818 
10.164397 8.653578 13.350544
9.313646 8.390415 12.878666
10.195316 9.640524 13.445841
10.441461 12.042163 13.399749
10.522653 12.259496 14.377284
11.215558 12.425964 12.900980
     222    173.22695    234.93221            0   0.51635662 
10.165561 8.656825 13.350731
9.326302 8.377080 12.867941
10.191295 9.646204 13.418314
10.439628 12.039835 13.402132
10.529319 12.257613 14.378825
11.210880 12.420895 12.896895
     223    180.08418    242.77041            0   0.53679673 
10.166663 8.660206 13.350921
9.339485 8.363614 12.857453
10.188037 9.651214 13.390225
10.437780 12.037429 13.404543
10.535974 12.255933 14.380256
11.206136 12.415567 12.892741
     224    186.97445    249.26311            0   0.55733531 
10.167705 8.663723 13.351102
9.353193 8.350027 12.847251
10.185483 9.655523 13.361813
10.435921 12.034943 13.406976
10.542609 12.254392 14.381584
11.201325 12.410020 12.888543
     225    193.89314    254.19132            0   0.57795861 
10.168691 8.667379 13.351261
9.367421 8.336338 12.837375
10.183552 9.659124 13.333327
10.434052 12.032374 13.409423
10.549211 12.252930 14.382816
11.196441 12.404307 12.884324
     226    200.83282    257.39762            0   0.59864449 
10.169625 8.671176 13.351385
9.382159 8.322574 12.827864
10.182144 9.662031 13.305021
10.432177 12.029720 13.411874
10.555768 12.251480 14.383959
11.191482 12.398479 12.880111
     227    207.63093    258.75416            0   0.61890837 
10.170513 8.675107 13.351464
9.397403 8.308764 12.818742
10.181133 9.664281 13.277152
10.430300 12.026982 13.414322
10.562266 12.249981 14.385021
11.186447 12.392596 12.875929
     228    214.07938    258.29382            0   0.63812996 
10.171360 8.679166 13.351488
9.413146 8.294946 12.810022
10.180388 9.665933 13.249948
10.428425 12.024161 13.416759
10.568694 12.248380 14.386012
11.181333 12.386720 12.871801
     229    220.13768    256.24269            0   0.65618861 
10.172173 8.683343 13.351450
9.429381 8.281162 12.801713
10.179780 9.667059 13.223603
10.426556 12.021258 13.419178
10.575038 12.246626 14.386940
11.176139 12.380910 12.867747
     230     225.8366    252.89118            0   0.67317599 
10.172956 8.687626 13.351344
9.446099 8.267461 12.793813
10.179188 9.667744 13.198276
10.424696 12.018277 13.421571
10.581284 12.244675 14.387814
11.170866 12.375220 12.863789
     231    231.24362    248.61998            0    0.6892933 
10.173715 8.692005 13.351167
9.463288 8.253898 12.786317
10.178511 9.668076 13.174075
10.422846 12.015217 13.423935
10.587424 12.242495 14.388642
11.165518 12.369685 12.859940
     232    236.21891    242.77165            0   0.70412369 
10.174458 8.696455 13.350918
9.480856 8.240665 12.779190
10.177755 9.668157 13.151209
10.421006 12.012088 13.426258
10.593441 12.240022 14.389436
11.160117 12.364340 12.856229
     233    241.25597    236.50775            0   0.71913821 
10.175184 8.700973 13.350600
9.498793 8.227800 12.772412
10.176985 9.668047 13.129545
10.419166 12.008891 13.428547
10.599372 12.237302 14.390188
11.154684 12.359073 12.852625
     234    246.54974    230.74784            0   0.73491795 
10.175901 8.705548 13.350216
9.517071 8.215363 12.765954
10.176111 9.667834 13.109165
10.417329 12.005627 13.430796
10.605209 12.234285 14.390909
11.149228 12.353922 12.849147
     235    251.64641    224.66754            0   0.75011015 
10.176613 8.710169 13.349766
9.535663 8.203413 12.759782
10.175058 9.667603 13.090117
10.415496 12.002300 13.433000
10.610946 12.230927 14.391608
11.143755 12.348918 12.845809
     236    256.59974    218.54321            0   0.76487508 
10.177325 8.714828 13.349256
9.554545 8.192003 12.753858
10.173753 9.667432 13.072432
10.413666 11.998910 13.435155
10.616581 12.227193 14.392293
11.138276 12.344090 12.842626
     237    261.42635     212.5687            0   0.77926229 
10.178043 8.719514 13.348689
9.573692 8.181181 12.748142
10.172132 9.667390 13.056121
10.411841 11.995461 13.437258
10.622108 12.223049 14.392973
11.132795 12.339466 12.839607
     238    266.13914    206.90664            0   0.79331022 
10.178770 8.724220 13.348069
9.593081 8.170993 12.742588
10.170133 9.667538 13.041188
10.410022 11.991953 13.439304
10.627524 12.218466 14.393654
11.127320 12.335071 12.836764
     239    270.74876    201.69179            0   0.80705062 
10.179511 8.728939 13.347404
9.612692 8.161479 12.737154
10.167705 9.667928 13.027622
10.408209 11.988388 13.441290
10.632824 12.213417 14.394344
11.121856 12.330931 12.834107
     240      275.275    197.03317            0    0.8205425 
10.180268 8.733664 13.346697
9.632504 8.152677 12.731792
10.164796 9.668601 13.015408
10.406404 11.984767 13.443215
10.638004 12.207882 14.395046
11.116409 12.327072 12.831644
     241    279.73226    193.02091            0   0.83382872 
10.181046 8.738389 13.345956
9.652499 8.144621 12.726458
10.161370 9.669590 13.004521
10.404605 11.981091 13.445076
10.643061 12.201842 14.395764
11.110983 12.323516 12.829385
     242    284.12872    189.72194            0   0.84693374 
10.181847 8.743111 13.345185
9.672657 8.137343 12.721109
10.157396 9.670917 12.994931
10.402815 11.977363 13.446870
10.647993 12.195277 14.396502
11.105584 12.320279 12.827335
     243      288.481    187.17538            0   0.85990708 
10.182672 8.747823 13.344391
9.692958 8.130871 12.715702
10.152854 9.672593 12.986605
10.401032 11.973582 13.448597
10.652799 12.188171 14.397262
11.100216 12.317379 12.825504
     244    292.80805    185.39849            0   0.87280519 
10.183524 8.752524 13.343580
9.713382 8.125233 12.710198
10.147734 9.674624 12.979505
10.399257 11.969752 13.450254
10.657477 12.180512 14.398043
11.094886 12.314828 12.823898
     245     297.1316    184.38851            0   0.88569285 
10.184404 8.757211 13.342756
9.733907 8.120455 12.704560
10.142036 9.677006 12.973593
10.397489 11.965873 13.451841
10.662028 12.172286 14.398844
11.089598 12.312633 12.822523
     246    301.49798    184.13073            0    0.8987082 
10.185314 8.761881 13.341925
9.754509 8.116560 12.698756
10.135770 9.679730 12.968831
10.395727 11.961946 13.453358
10.666452 12.163482 14.399662
11.084358 12.310802 12.821388
     247    305.93504    184.58776            0   0.91193425 
10.186255 8.766534 13.341092
9.775161 8.113571 12.692755
10.128958 9.682779 12.965177
10.393970 11.957973 13.454803
10.670749 12.154090 14.400494
11.079172 12.309335 12.820498
     248    310.45171    185.70128            0   0.92539758 
10.187228 8.771169 13.340261
9.795832 8.111509 12.686534
10.121631 9.686135 12.962592
10.392217 11.953956 13.456177
10.674922 12.144102 14.401334
11.074045 12.308230 12.819859
     249    315.08327    187.40691            0   0.93920338 
10.188232 8.775785 13.339435
9.816489 8.110393 12.680071
10.113834 9.689775 12.961035
10.390466 11.949896 13.457479
10.678973 12.133509 14.402174
11.068985 12.307482 12.819479
     250    319.27458    189.19648            0   0.95169688 
10.189273 8.780366 13.338618
9.837029 8.110299 12.673311
10.105642 9.693694 12.960548
10.388714 11.945803 13.458706
10.682883 12.122316 14.403009
11.064008 12.307096 12.819374
     251    323.06638    191.06292            0   0.96299951 
10.190351 8.784914 13.337814
9.857410 8.111242 12.666236
10.097122 9.697872 12.961096
10.386960 11.941678 13.459859
10.686652 12.110522 14.403828
11.059119 12.307060 12.819548
     252    327.08007    193.38863            0   0.97496357 
10.191464 8.789429 13.337024
9.877591 8.113236 12.658830
10.088357 9.702285 12.962641
10.385201 11.937522 13.460939
10.690287 12.098122 14.404618
11.054325 12.307355 12.820005
     253    331.29665    196.09654            0   0.98753238 
10.192613 8.793910 13.336253
9.897529 8.116290 12.651085
10.079438 9.706911 12.965144
10.383433 11.933338 13.461947
10.693793 12.085114 14.405367
11.049631 12.307962 12.820748
     254    335.59242    199.11617            0    1.0003372 
10.193795 8.798359 13.335501
9.917192 8.120401 12.642996
10.070457 9.711727 12.968559
10.381654 11.929127 13.462884
10.697176 12.071500 14.406058
11.045038 12.308867 12.821776
     255    339.88608    202.39384            0    1.0131358 
10.195008 8.802774 13.334771
9.936552 8.125564 12.634566
10.061508 9.716713 12.972843
10.379862 11.924894 13.463754
10.700441 12.057287 14.406676
11.040545 12.310057 12.823092
     256    344.19003     205.8962            0    1.0259651 
10.196250 8.807155 13.334064
9.955580 8.131773 12.625800
10.052683 9.721854 12.977956
10.378055 11.920639 13.464557
10.703596 12.042480 14.407202
11.036153 12.311515 12.824695
     257     348.5344    209.61417            0    1.0389148 
10.197518 8.811502 13.333380
9.974254 8.139018 12.616708
10.044076 9.727138 12.983859
10.376231 11.916365 13.465297
10.706645 12.027082 14.407618
11.031863 12.313224 12.826587
     258    352.93417    213.53467            0    1.0520297 
10.198810 8.815815 13.332720
9.992554 8.147287 12.607304
10.035780 9.732557 12.990514
10.374387 11.912074 13.465975
10.709595 12.011101 14.407904
11.027674 12.315166 12.828768
     259    357.36032    217.64104            0    1.0652232 
10.200122 8.820093 13.332083
10.010464 8.156565 12.597604
10.027884 9.738105 12.997886
10.372521 11.907769 13.466594
10.712450 11.994544 14.408039
11.023586 12.317323 12.831236
     260    362.57756    221.89609            0    1.0807748 
10.201453 8.824356 13.331467
10.027981 8.166755 12.587714
10.020466 9.743756 13.005819
10.370631 11.903441 13.467162
10.715230 11.977413 14.408002
11.019597 12.319647 12.833983
     261    368.60178    226.20956            0    1.0987319 
10.202798 8.828602 13.330872
10.045093 8.177836 12.577658
10.013611 9.749513 13.014279
10.368714 11.899092 13.467682
10.717937 11.959721 14.407772
11.015705 12.322118 12.837007
     262     374.6708    230.58732            0    1.1168225 
10.204155 8.832833 13.330295
10.061791 8.189782 12.567460
10.007399 9.755384 13.023236
10.366769 11.894725 13.468157
10.720576 11.941482 14.407325
11.011909 12.324718 12.840304
     263    380.70673    235.07258            0    1.1348144 
10.205522 8.837045 13.329736
10.078065 8.202574 12.557143
10.001889 9.761377 13.032676
10.364796 11.890339 13.468590
10.723137 11.922716 14.406643
11.008207 12.327440 12.843878
     264    386.68868    239.68072            0    1.1526455 
10.206895 8.841241 13.329193
10.093918 8.216183 12.546735
9.997152 9.767500 13.042572
10.362794 11.885937 13.468982
10.725625 11.903446 14.405704
11.004595 12.330268 12.847725
     265    392.68377    244.40595            0    1.1705157 
10.208270 8.845418 13.328663
10.109356 8.230581 12.536267
9.993255 9.773763 13.052901
10.360762 11.881518 13.469338
10.728040 11.883698 14.404487
11.001069 12.333181 12.851838
     266    398.66492    249.25655            0    1.1883444 
10.209643 8.849578 13.328144
10.124392 8.245736 12.525768
9.990261 9.780174 13.063642
10.358699 11.877085 13.469662
10.730384 11.863502 14.402972
10.997622 12.336162 12.856209
     267    404.74776    253.98769            0    1.2064762 
10.211009 8.853726 13.327632
10.139075 8.261570 12.515304
9.988225 9.786730 13.074708
10.356605 11.872634 13.469963
10.732680 11.842930 14.401137
10.994240 12.339149 12.860795
     268    410.87204    258.54319            0    1.2247315 
10.212362 8.857862 13.327123
10.153431 8.278045 12.504907
9.987192 9.793434 13.086079
10.354480 11.868167 13.470245
10.734933 11.822023 14.398969
10.990913 12.342127 12.865585
     269    416.78185    263.12074            0    1.2423475 
10.213699 8.861986 13.326614
10.167487 8.295121 12.494612
9.987198 9.800289 13.097740
10.352325 11.863684 13.470513
10.737144 11.800826 14.396452
10.987631 12.345083 12.870562
     270    422.40324    267.69288            0    1.2591038 
10.215015 8.866098 13.326102
10.181277 8.312756 12.484452
9.988271 9.807293 13.109679
10.350141 11.859187 13.470770
10.739316 11.779390 14.393579
10.984382 12.348006 12.875712
     271    427.65729     272.2149            0    1.2747651 
10.216306 8.870197 13.325581
10.194836 8.330905 12.474462
9.990430 9.814436 13.121884
10.347928 11.854675 13.471021
10.741451 11.757768 14.390341
10.981151 12.350886 12.881018
     272    432.46175    276.62127            0    1.2890863 
10.217568 8.874284 13.325048
10.208203 8.349521 12.464679
9.993680 9.821705 13.134346
10.345690 11.850149 13.471269
10.743553 11.736020 14.386736
10.977924 12.353718 12.886463
     273    436.73836    280.82435            0    1.3018341 
10.218797 8.878360 13.324499
10.221418 8.368550 12.455138
9.998016 9.829080 13.147053
10.343429 11.845609 13.471519
10.745626 11.714213 14.382767
10.974685 12.356495 12.892027
     274    440.40428    284.70766            0    1.3127615 
10.219991 8.882424 13.323927
10.234519 8.387935 12.445878
10.003420 9.836532 13.159993
10.341147 11.841056 13.471774
10.747673 11.692414 14.378440
10.971416 12.359216 12.897692
     275    443.36847    288.12189            0    1.3215972 
10.221145 8.886478 13.323329
10.247544 8.407610 12.436938
10.009858 9.844029 13.173148
10.338847 11.836490 13.472039
10.749698 11.670702 14.373769
10.968100 12.361876 12.903436
     276    445.54461    290.88898            0    1.3280839 
10.222260 8.890524 13.322698
10.260529 8.427501 12.428358
10.017284 9.851530 13.186495
10.336533 11.831912 13.472319
10.751706 11.649156 14.368774
10.964719 12.364474 12.909238
     277    446.96238    293.19153            0      1.33231 
10.223334 8.894561 13.322032
10.273475 8.447562 12.420158
10.025693 9.859008 13.200045
10.334206 11.827325 13.472613
10.753693 11.627801 14.363467
10.961273 12.367012 12.915096
     278    447.57188    294.78521            0    1.3341268 
10.224367 8.898593 13.321325
10.286410 8.467692 12.412383
10.035005 9.866409 13.213748
10.331869 11.822731 13.472928
10.755665 11.606733 14.357881
10.957743 12.369482 12.920982
     279    447.55421    292.56657            0    1.3340741 
10.225378 8.902652 13.320565
10.299180 8.487399 12.405241
10.045033 9.873655 13.227132
10.329527 11.818123 13.473288
10.757598 11.586165 14.352124
10.954132 12.371796 12.926831
     280     446.8918    286.50197            0    1.3320996 
10.226369 8.906742 13.319751
10.311807 8.506572 12.398739
10.055665 9.880713 13.240123
10.327185 11.813503 13.473700
10.759500 11.566199 14.346251
10.950416 12.373951 12.932607
     281    445.19916     279.0707            0    1.3270541 
10.227343 8.910863 13.318881
10.324313 8.525107 12.392875
10.066772 9.887557 13.252644
10.324848 11.808870 13.474166
10.761380 11.546943 14.340327
10.946572 12.375948 12.938274
     282    442.37824     270.2916            0    1.3186455 
10.228302 8.915015 13.317954
10.336714 8.542905 12.387642
10.078214 9.894162 13.264615
10.322521 11.804226 13.474693
10.763246 11.528506 14.334426
10.942576 12.377793 12.943796
     283    438.35026    260.21621            0    1.3066389 
10.229250 8.919196 13.316968
10.349022 8.559876 12.383029
10.089838 9.900513 13.275954
10.320211 11.799572 13.475284
10.765107 11.511000 14.328627
10.938403 12.379493 12.949138
     284    433.05107    248.93978            0     1.290843 
10.230193 8.923402 13.315924
10.361245 8.575936 12.379018
10.101487 9.906598 13.286578
10.317923 11.794909 13.475942
10.766972 11.494536 14.323014
10.934026 12.381059 12.954267
     285    426.44914    236.62047            0    1.2711639 
10.231134 8.927628 13.314820
10.373382 8.591010 12.375590
10.112996 9.912414 13.296400
10.315663 11.790241 13.476671
10.768845 11.479226 14.317680
10.929419 12.382503 12.959150
     286    418.49731    223.54112            0     1.247461 
10.232081 8.931865 13.313659
10.385425 8.605050 12.372714
10.124191 9.917964 13.305352
10.313440 11.785570 13.477471
10.770729 11.465169 14.312714
10.924553 12.383865 12.963775
     287    409.19351    209.95004            0    1.2197281 
10.233039 8.936105 13.312441
10.397362 8.617998 12.370366
10.134909 9.923258 13.313348
10.311260 11.780898 13.478344
10.772627 11.452469 14.308209
10.919400 12.385163 12.968119
     288    398.63277    196.14026            0    1.1882486 
10.234014 8.940339 13.311167
10.409177 8.629812 12.368516
10.145002 9.928313 13.320307
10.309129 11.776232 13.479290
10.774536 11.441219 14.304253
10.913937 12.386418 12.972162
     289    386.90479    182.47576            0    1.1532897 
10.235011 8.944555 13.309839
10.420852 8.640452 12.367138
10.154322 9.933151 13.326143
10.307053 11.771575 13.480312
10.776453 11.431510 14.300934
10.908139 12.387651 12.975886
     290    374.13553    169.32871            0     1.115227 
10.236037 8.948741 13.308458
10.432366 8.649887 12.366205
10.162734 9.937796 13.330772
10.305040 11.766933 13.481411
10.778374 11.423423 14.298330
10.901981 12.388878 12.979271
     291     360.4829    157.12046            0     1.074531 
10.237095 8.952887 13.307025
10.443702 8.658095 12.365690
10.170115 9.942270 13.334114
10.303093 11.762314 13.482589
10.780286 11.417028 14.296509
10.895442 12.390115 12.982302
     292    346.04838    146.22661            0    1.0315045 
10.238193 8.956979 13.305543
10.454835 8.665056 12.365572
10.176332 9.946595 13.336084
10.301222 11.757721 13.483848
10.782176 11.412407 14.295538
10.888490 12.391390 12.984969
     293    330.99418    137.06918            0   0.98663078 
10.239333 8.961005 13.304014
10.465748 8.670762 12.365827
10.181282 9.950787 13.336608
10.299431 11.753163 13.485188
10.784023 11.409617 14.295464
10.881098 12.392725 12.987268
     294    315.58288    130.07171            0   0.94069262 
10.240520 8.964954 13.302439
10.476420 8.675212 12.366437
10.184880 9.954855 13.335621
10.297728 11.748646 13.486611
10.785801 11.408703 14.296317
10.873241 12.394138 12.989194
     295    300.16377      125.545            0   0.89473119 
10.241756 8.968816 13.300821
10.486845 8.678430 12.367383
10.187118 9.958802 13.333101
10.296113 11.744181 13.488120
10.787483 11.409631 14.298078
10.864921 12.395619 12.990741
     296    285.01961    123.59668            0   0.84958933 
10.243040 8.972582 13.299162
10.497011 8.680430 12.368653
10.187984 9.962621 13.329012
10.294590 11.739777 13.489716
10.789036 11.412389 14.300728
10.856127 12.397168 12.991909
     297    270.31543    124.26334            0   0.80575895 
10.244374 8.976245 13.297463
10.506913 8.681233 12.370241
10.187494 9.966293 13.323336
10.293160 11.735443 13.491403
10.790425 11.416943 14.304228
10.846852 12.398783 12.992699
     298    256.22216    127.43658            0   0.76374959 
10.245757 8.979800 13.295725
10.516545 8.680862 12.372140
10.185698 9.969789 13.316072
10.291823 11.731190 13.493181
10.791613 11.423237 14.308519
10.837095 12.400455 12.993119
     299    242.88591     132.8702            0   0.72399678 
10.247186 8.983240 13.293951
10.525906 8.679350 12.374350
10.182675 9.973069 13.307239
10.290579 11.727029 13.495054
10.792563 11.431193 14.313525
10.826860 12.402174 12.993176
     300    230.41181    140.19017            0   0.68681385 
10.248660 8.986563 13.292140
10.534996 8.676733 12.376872
10.178532 9.976088 13.296877
10.289426 11.722970 13.497022
10.793238 11.440713 14.319156
10.816154 12.403929 12.992887
     301    218.86511    148.92097            0   0.65239531 
10.250173 8.989766 13.290294
10.543813 8.673055 12.379707
10.173402 9.978795 13.285045
10.288361 11.719026 13.499086
10.793608 11.451680 14.325314
10.804992 12.405706 12.992270
     302    208.27511    158.51993            0   0.62082853 
10.251721 8.992845 13.288412
10.552360 8.668366 12.382857
10.167436 9.981137 13.271826
10.287378 11.715209 13.501246
10.793645 11.463962 14.331890
10.793391 12.407491 12.991349
     303    198.64127    168.41576            0   0.59211191 
10.253301 8.995797 13.286494
10.560635 8.662720 12.386325
10.160804 9.983062 13.257319
10.286473 11.711531 13.503501
10.793329 11.477411 14.338776
10.781373 12.409275 12.990152
     304     189.9489    178.04736            0    0.5662016 
10.254905 8.998619 13.284540
10.568640 8.656181 12.390109
10.153684 9.984527 13.241644
10.285637 11.708006 13.505848
10.792647 11.491872 14.345864
10.768965 12.411047 12.988714
     305    182.15714    186.89575            0   0.54297585 
10.256529 9.001307 13.282550
10.576372 8.648816 12.394208
10.146263 9.985492 13.224932
10.284864 11.704646 13.508284
10.791596 11.507183 14.353051
10.756195 12.412801 12.987070
     306    175.21148    194.51409            0   0.52227213 
10.258168 9.003856 13.280523
10.583830 8.640697 12.398615
10.138723 9.985933 13.207331
10.284145 11.701464 13.510803
10.790178 11.523178 14.360241
10.743095 12.414537 12.985264
     307    169.06664    200.54713            0   0.50395555 
10.259817 9.006259 13.278458
10.591010 8.631903 12.403319
10.131245 9.985834 13.188997
10.283471 11.698472 13.513400
10.788407 11.539690 14.367349
10.729698 12.416258 12.983340
     308    163.68212    204.74066            0   0.48790532 
10.261469 9.008510 13.276356
10.597910 8.622517 12.408302
10.124004 9.985194 13.170093
10.282833 11.695682 13.516067
10.786301 11.556558 14.374301
10.716038 12.417973 12.981345
     309    159.02542      206.944            0   0.47402457 
10.263121 9.010601 13.274216
10.604528 8.612626 12.413544
10.117160 9.984028 13.150787
10.282222 11.693104 13.518796
10.783888 11.573623 14.381035
10.702149 12.419697 12.979330
     310    155.07367    207.10614            0   0.46224515 
10.264768 9.012523 13.272039
10.610861 8.602319 12.419014
10.110863 9.982364 13.131248
10.281630 11.690748 13.521576
10.781200 11.590736 14.387502
10.688063 12.421449 12.977346
     311    151.81372    205.26719            0   0.45252787 
10.266406 9.014265 13.269826
10.616910 8.591688 12.424678
10.105249 9.980240 13.111646
10.281046 11.688623 13.524399
10.778274 11.607756 14.393666
10.673814 12.423254 12.975445
     312    148.49868    199.72776            0   0.44264637 
10.268013 9.015798 13.267581
10.622887 8.581139 12.430422
10.100457 9.977757 13.092483
10.280465 11.686738 13.527233
10.775214 11.624425 14.399438
10.659405 12.425213 12.973736
     313    145.22916    191.17235            0   0.43290054 
10.269588 9.017114 13.265307
10.628789 8.570724 12.436204
10.096552 9.974978 13.073853
10.279880 11.685096 13.530071
10.772055 11.640662 14.404823
10.644858 12.427343 12.972254
     314    142.81833    181.82965            0    0.4257143 
10.271128 9.018205 13.263006
10.634603 8.560500 12.441975
10.093644 9.971985 13.055875
10.279283 11.683702 13.532902
10.768839 11.656360 14.409821
10.630208 12.429671 12.971047
     315    141.25649    171.79031            0   0.42105876 
10.272632 9.019064 13.260682
10.640316 8.550513 12.447683
10.091828 9.968861 13.038655
10.278664 11.682558 13.535716
10.765608 11.671430 14.414444
10.615485 12.432223 12.970160
     316    140.58926    161.49741            0   0.41906989 
10.274100 9.019685 13.258338
10.645912 8.540799 12.453276
10.091180 9.965686 13.022283
10.278017 11.681668 13.538504
10.762400 11.685798 14.418707
10.600720 12.435025 12.969631
     317     140.8525    151.35979            0   0.41985454 
10.275531 9.020061 13.255976
10.651372 8.531387 12.458706
10.091761 9.962536 13.006837
10.277335 11.681032 13.541258
10.759252 11.699406 14.422631
10.585939 12.438103 12.969500
     318    142.07021    141.74136            0   0.42348432 
10.276926 9.020189 13.253601
10.656680 8.522298 12.463924
10.093614 9.959477 12.992386
10.276612 11.680650 13.543968
10.756196 11.712207 14.426240
10.571167 12.441483 12.969798
     319    144.25319    132.95547            0   0.42999136 
10.278286 9.020065 13.251216
10.661822 8.513550 12.468885
10.096770 9.956571 12.978988
10.275843 11.680521 13.546628
10.753260 11.724168 14.429560
10.556425 12.445189 12.970559
     320     147.3982    125.26298            0   0.43936604 
10.279611 9.019688 13.248822
10.666785 8.505153 12.473547
10.101246 9.953867 12.966695
10.275024 11.680643 13.549231
10.750470 11.735262 14.432616
10.541732 12.449245 12.971809
     321    151.48779    118.87296            0   0.45155631 
10.280904 9.019058 13.246422
10.671558 8.497119 12.477872
10.107050 9.951405 12.955556
10.274152 11.681012 13.551772
10.747846 11.745477 14.435434
10.527105 12.453671 12.973574
     322    156.43635    113.95112            0   0.46630703 
10.282169 9.018178 13.244020
10.676126 8.489457 12.481818
10.114057 9.949184 12.945580
10.273231 11.681621 13.554243
10.745355 11.754843 14.438063
10.512553 12.458484 12.975875
     323    162.18803    110.50612            0   0.48345172 
10.283409 9.017052 13.241616
10.680488 8.482171 12.485356
10.122250 9.947221 12.936798
10.272259 11.682465 13.556642
10.743013 11.763362 14.440524
10.498089 12.463691 12.978726
     324     168.7366    108.55577            0   0.50297174 
10.284624 9.015683 13.239213
10.684646 8.475264 12.488461
10.131609 9.945524 12.929240
10.271235 11.683539 13.558965
10.740830 11.771038 14.442835
10.483725 12.469301 12.982142
     325    176.01069    108.11962            0   0.52465442 
10.285815 9.014076 13.236811
10.688605 8.468738 12.491112
10.142107 9.944092 12.922935
10.270159 11.684838 13.561210
10.738815 11.777878 14.445011
10.469467 12.475320 12.986132
     326    183.94199    109.19745            0   0.54829614 
10.286982 9.012236 13.234410
10.692372 8.462596 12.493292
10.153713 9.942917 12.917909
10.269030 11.686355 13.563372
10.736976 11.783895 14.447065
10.455321 12.481749 12.990710
     327    192.44779    111.75919            0   0.57365031 
10.288128 9.010170 13.232010
10.695955 8.456841 12.494987
10.166389 9.941978 12.914185
10.267848 11.688083 13.565451
10.735313 11.789106 14.449007
10.441290 12.488588 12.995882
     328    201.45368    115.78368            0   0.60049516 
10.289252 9.007885 13.229612
10.699369 8.451466 12.496194
10.180095 9.941247 12.911775
10.266617 11.690017 13.567446
10.733830 11.793536 14.450846
10.427366 12.495832 13.001653
     329    210.86679    121.18015            0   0.62855384 
10.290354 9.005391 13.227214
10.702627 8.446477 12.496908
10.194783 9.940690 12.910699
10.265336 11.692148 13.569355
10.732522 11.797208 14.452588
10.413550 12.503472 13.008030
     330     220.5665    127.80416            0   0.65746685 
10.291437 9.002695 13.224816
10.705740 8.441876 12.497124
10.210395 9.940263 12.910972
10.264010 11.694470 13.571178
10.731381 11.800149 14.454239
10.399837 12.511498 13.015017
     331    230.45227    135.52493            0   0.68693444 
10.292501 8.999808 13.222417
10.708724 8.437670 12.496841
10.226864 9.939919 12.912606
10.262640 11.696974 13.572915
10.730397 11.802385 14.455804
10.386224 12.519894 13.022616
     332    240.42291    144.18115            0   0.71665503 
10.293548 8.996740 13.220016
10.711593 8.433864 12.496061
[...]
    9695     218.7027    290.14723            0   0.65191121 
    9696     218.7027    290.14725            0   0.65191121 
    9697     218.7027    290.14726            0   0.65191121 
    9698     218.7027    290.14728            0   0.65191121 
    9699     218.7027     290.1473            0   0.65191121 
    9700     218.7027    290.14731            0   0.65191121 
    9701     218.7027    290.14733            0   0.65191121 
    9702     218.7027    290.14734            0   0.65191121 
    9703     218.7027    290.14735            0   0.65191121 
    9704     218.7027    290.14737            0   0.65191121 
    9705     218.7027    290.14738            0   0.65191121 
    9706     218.7027    290.14739            0   0.65191121 
    9707     218.7027    290.14741            0   0.65191121 
    9708     218.7027    290.14742            0   0.65191121 
    9709     218.7027    290.14743            0   0.65191121 
    9710     218.7027    290.14744            0   0.65191121 
    9711     218.7027    290.14745            0   0.65191121 
    9712     218.7027    290.14747            0   0.65191121 
    9713     218.7027    290.14748            0   0.65191121 
    9714     218.7027    290.14749            0   0.65191121 
    9715     218.7027     290.1475            0   0.65191121 
    9716     218.7027    290.14751            0   0.65191121 
    9717     218.7027    290.14752            0   0.65191121 
    9718     218.7027    290.14753            0   0.65191121 
    9719     218.7027    290.14754            0   0.65191121 
    9720     218.7027    290.14755            0   0.65191121 
    9721     218.7027    290.14756            0   0.65191121 
    9722     218.7027    290.14757            0   0.65191121 
    9723     218.7027    290.14758            0   0.65191121 
    9724     218.7027    290.14758            0   0.65191121 
    9725     218.7027    290.14759            0   0.65191121 
    9726     218.7027     290.1476            0   0.65191121 
    9727     218.7027    290.14761            0   0.65191121 
    9728     218.7027    290.14762            0   0.65191121 
    9729     218.7027    290.14763            0   0.65191121 
    9730     218.7027    290.14763            0   0.65191121 
    9731     218.7027    290.14764            0   0.65191121 
    9732     218.7027    290.14765            0   0.65191121 
    9733     218.7027    290.14766            0   0.65191121 
    9734     218.7027    290.14766            0   0.65191121 
    9735     218.7027    290.14767            0   0.65191121 
    9736     218.7027    290.14768            0   0.65191121 
    9737     218.7027    290.14769            0   0.65191121 
    9738     218.7027    290.14769            0   0.65191121 
    9739     218.7027     290.1477            0   0.65191121 
    9740     218.7027    290.14771            0   0.65191121 
    9741     218.7027    290.14772            0   0.65191121 
    9742     218.7027    290.14772            0   0.65191121 
    9743     218.7027    290.14773            0   0.65191121 
    9744     218.7027    290.14774            0   0.65191121 
    9745     218.7027    290.14774            0   0.65191121 
    9746     218.7027    290.14775            0   0.65191121 
    9747     218.7027    290.14776            0   0.65191121 
    9748     218.7027    290.14776            0   0.65191121 
    9749     218.7027    290.14777            0   0.65191121 
    9750     218.7027    290.14778            0   0.65191121 
    9751     218.7027    290.14779            0   0.65191121 
    9752     218.7027    290.14779            0   0.65191121 
    9753     218.7027     290.1478            0   0.65191121 
    9754     218.7027    290.14781            0   0.65191121 
    9755     218.7027    290.14782            0   0.65191121 
    9756     218.7027    290.14782            0   0.65191121 
    9757     218.7027    290.14783            0   0.65191121 
    9758     218.7027    290.14784            0   0.65191121 
    9759     218.7027    290.14785            0   0.65191121 
    9760     218.7027    290.14785            0   0.65191121 
    9761     218.7027    290.14786            0   0.65191121 
    9762     218.7027    290.14787            0   0.65191121 
    9763     218.7027    290.14788            0   0.65191121 
    9764     218.7027    290.14789            0   0.65191121 
    9765     218.7027    290.14789            0   0.65191121 
    9766     218.7027     290.1479            0   0.65191121 
    9767     218.7027    290.14791            0   0.65191121 
    9768     218.7027    290.14792            0   0.65191121 
    9769     218.7027    290.14793            0   0.65191121 
    9770     218.7027    290.14794            0   0.65191121 
    9771     218.7027    290.14795            0   0.65191121 
    9772     218.7027    290.14796            0   0.65191121 
    9773     218.7027    290.14797            0   0.65191121 
    9774     218.7027    290.14798            0   0.65191121 
    9775     218.7027    290.14799            0   0.65191121 
    9776     218.7027      290.148            0   0.65191121 
    9777     218.7027    290.14801            0   0.65191121 
    9778     218.7027    290.14802            0   0.65191121 
    9779     218.7027    290.14803            0   0.65191121 
    9780     218.7027    290.14804            0   0.65191121 
    9781     218.7027    290.14805            0   0.65191121 
    9782     218.7027    290.14807            0   0.65191121 
    9783     218.7027    290.14808            0   0.65191121 
    9784     218.7027    290.14809            0   0.65191121 
    9785     218.7027     290.1481            0   0.65191121 
    9786     218.7027    290.14812            0   0.65191121 
    9787     218.7027    290.14813            0   0.65191121 
    9788     218.7027    290.14814            0   0.65191121 
    9789     218.7027    290.14816            0   0.65191121 
    9790     218.7027    290.14817            0   0.65191121 
    9791     218.7027    290.14819            0   0.65191121 
    9792     218.7027     290.1482            0   0.65191121 
    9793     218.7027    290.14822            0   0.65191121 
    9794     218.7027    290.14823            0   0.65191121 
    9795     218.7027    290.14825            0   0.65191121 
    9796     218.7027    290.14827            0   0.65191121 
    9797     218.7027    290.14828            0   0.65191121 
    9798     218.7027     290.1483            0   0.65191121 
    9799     218.7027    290.14832            0   0.65191121 
    9800     218.7027    290.14833            0   0.65191121 
    9801     218.7027    290.14835            0   0.65191121 
    9802     218.7027    290.14837            0   0.65191121 
    9803     218.7027    290.14839            0   0.65191121 
    9804     218.7027    290.14841            0   0.65191121 
    9805     218.7027    290.14843            0   0.65191121 
    9806     218.7027    290.14845            0   0.65191121 
    9807     218.7027    290.14846            0   0.65191121 
    9808     218.7027    290.14848            0   0.65191121 
    9809     218.7027     290.1485            0   0.65191121 
    9810     218.7027    290.14852            0   0.65191121 
    9811     218.7027    290.14855            0   0.65191121 
    9812     218.7027    290.14857            0   0.65191121 
    9813     218.7027    290.14859            0   0.65191121 
    9814     218.7027    290.14861            0   0.65191121 
    9815     218.7027    290.14863            0   0.65191121 
    9816     218.7027    290.14865            0   0.65191121 
    9817     218.7027    290.14867            0   0.65191121 
    9818     218.7027    290.14869            0   0.65191121 
    9819     218.7027    290.14872            0   0.65191121 
    9820     218.7027    290.14874            0   0.65191121 
    9821     218.7027    290.14876            0   0.65191121 
    9822     218.7027    290.14878            0   0.65191121 
    9823     218.7027     290.1488            0   0.65191121 
    9824     218.7027    290.14883            0   0.65191121 
    9825     218.7027    290.14885            0   0.65191121 
    9826     218.7027    290.14887            0   0.65191121 
    9827     218.7027    290.14889            0   0.65191121 
    9828     218.7027    290.14892            0   0.65191121 
    9829     218.7027    290.14894            0   0.65191121 
    9830     218.7027    290.14896            0   0.65191121 
    9831     218.7027    290.14898            0   0.65191121 
    9832     218.7027      290.149            0   0.65191121 
    9833     218.7027    290.14902            0   0.65191121 
    9834     218.7027    290.14905            0   0.65191121 
    9835     218.7027    290.14907            0   0.65191121 
    9836     218.7027    290.14909            0   0.65191121 
    9837     218.7027    290.14911            0   0.65191121 
    9838     218.7027    290.14913            0   0.65191121 
    9839     218.7027    290.14915            0   0.65191121 
    9840     218.7027    290.14917            0   0.65191121 
    9841     218.7027    290.14919            0   0.65191121 
    9842     218.7027    290.14921            0   0.65191121 
    9843     218.7027    290.14923            0   0.65191121 
    9844     218.7027    290.14925            0   0.65191121 
    9845     218.7027    290.14926            0   0.65191121 
    9846     218.7027    290.14928            0   0.65191121 
    9847     218.7027     290.1493            0   0.65191121 
    9848     218.7027    290.14932            0   0.65191121 
    9849     218.7027    290.14934            0   0.65191121 
    9850     218.7027    290.14935            0   0.65191121 
    9851     218.7027    290.14937            0   0.65191121 
    9852     218.7027    290.14939            0   0.65191121 
    9853     218.7027     290.1494            0   0.65191121 
    9854     218.7027    290.14942            0   0.65191121 
    9855     218.7027    290.14943            0   0.65191121 
    9856     218.7027    290.14945            0   0.65191121 
    9857     218.7027    290.14946            0   0.65191121 
    9858     218.7027    290.14948            0   0.65191121 
    9859     218.7027    290.14949            0   0.65191121 
    9860     218.7027    290.14951            0   0.65191121 
    9861     218.7027    290.14952            0   0.65191121 
    9862     218.7027    290.14953            0   0.65191121 
    9863     218.7027    290.14955            0   0.65191121 
    9864     218.7027    290.14956            0   0.65191121 
    9865     218.7027    290.14957            0   0.65191121 
    9866     218.7027    290.14958            0   0.65191121 
    9867     218.7027     290.1496            0   0.65191121 
    9868     218.7027    290.14961            0   0.65191121 
    9869     218.7027    290.14962            0   0.65191121 
    9870     218.7027    290.14963            0   0.65191121 
    9871     218.7027    290.14964            0   0.65191121 
    9872     218.7027    290.14965            0   0.65191121 
    9873     218.7027    290.14966            0   0.65191121 
    9874     218.7027    290.14967            0   0.65191121 
    9875     218.7027    290.14968            0   0.65191121 
    9876     218.7027    290.14969            0   0.65191121 
    9877     218.7027     290.1497            0   0.65191121 
    9878     218.7027    290.14971            0   0.65191121 
    9879     218.7027    290.14972            0   0.65191121 
    9880     218.7027    290.14973            0   0.65191121 
    9881     218.7027    290.14974            0   0.65191121 
    9882     218.7027    290.14975            0   0.65191121 
    9883     218.7027    290.14976            0   0.65191121 
    9884     218.7027    290.14976            0   0.65191121 
    9885     218.7027    290.14977            0   0.65191121 
    9886     218.7027    290.14978            0   0.65191121 
    9887     218.7027    290.14979            0   0.65191121 
    9888     218.7027     290.1498            0   0.65191121 
    9889     218.7027     290.1498            0   0.65191121 
    9890     218.7027    290.14981            0   0.65191121 
    9891     218.7027    290.14982            0   0.65191121 
    9892     218.7027    290.14983            0   0.65191121 
    9893     218.7027    290.14983            0   0.65191121 
    9894     218.7027    290.14984            0   0.65191121 
    9895     218.7027    290.14985            0   0.65191121 
    9896     218.7027    290.14986            0   0.65191121 
    9897     218.7027    290.14986            0   0.65191121 
    9898     218.7027    290.14987            0   0.65191121 
    9899     218.7027    290.14988            0   0.65191121 
    9900     218.7027    290.14988            0   0.65191121 
    9901     218.7027    290.14989            0   0.65191121 
    9902     218.7027     290.1499            0   0.65191121 
    9903     218.7027    290.14991            0   0.65191121 
    9904     218.7027    290.14991            0   0.65191121 
    9905     218.7027    290.14992            0   0.65191121 
    9906     218.7027    290.14993            0   0.65191121 
    9907     218.7027    290.14993            0   0.65191121 
    9908     218.7027    290.14994            0   0.65191121 
    9909     218.7027    290.14995            0   0.65191121 
    9910     218.7027    290.14995            0   0.65191121 
    9911     218.7027    290.14996            0   0.65191121 
    9912     218.7027    290.14997            0   0.65191121 
    9913     218.7027    290.14998            0   0.65191121 
    9914     218.7027    290.14998            0   0.65191121 
    9915     218.7027    290.14999            0   0.65191121 
    9916     218.7027       290.15            0   0.65191121 
    9917     218.7027    290.15001            0   0.65191121 
    9918     218.7027    290.15002            0   0.65191121 
    9919     218.7027    290.15002            0   0.65191121 
    9920     218.7027    290.15003            0   0.65191121 
    9921     218.7027    290.15004            0   0.65191121 
    9922     218.7027    290.15005            0   0.65191121 
    9923     218.7027    290.15006            0   0.65191121 
    9924     218.7027    290.15007            0   0.65191121 
    9925     218.7027    290.15007            0   0.65191121 
    9926     218.7027    290.15008            0   0.65191121 
    9927     218.7027    290.15009            0   0.65191121 
    9928     218.7027     290.1501            0   0.65191121 
    9929     218.7027    290.15011            0   0.65191121 
    9930     218.7027    290.15012            0   0.65191121 
    9931     218.7027    290.15013            0   0.65191121 
    9932     218.7027    290.15014            0   0.65191121 
    9933     218.7027    290.15015            0   0.65191121 
    9934     218.7027    290.15016            0   0.65191121 
    9935     218.7027    290.15017            0   0.65191121 
    9936     218.7027    290.15019            0   0.65191121 
    9937     218.7027     290.1502            0   0.65191121 
    9938     218.7027    290.15021            0   0.65191121 
    9939     218.7027    290.15022            0   0.65191121 
    9940     218.7027    290.15023            0   0.65191121 
    9941     218.7027    290.15025            0   0.65191121 
    9942     218.7027    290.15026            0   0.65191121 
    9943     218.7027    290.15027            0   0.65191121 
    9944     218.7027    290.15028            0   0.65191121 
    9945     218.7027     290.1503            0   0.65191121 
    9946     218.7027    290.15031            0   0.65191121 
    9947     218.7027    290.15033            0   0.65191121 
    9948     218.7027    290.15034            0   0.65191121 
    9949     218.7027    290.15036            0   0.65191121 
    9950     218.7027    290.15037            0   0.65191121 
    9951     218.7027    290.15039            0   0.65191121 
    9952     218.7027     290.1504            0   0.65191121 
    9953     218.7027    290.15042            0   0.65191121 
    9954     218.7027    290.15044            0   0.65191121 
    9955     218.7027    290.15045            0   0.65191121 
    9956     218.7027    290.15047            0   0.65191121 
    9957     218.7027    290.15049            0   0.65191121 
    9958     218.7027    290.15051            0   0.65191121 
    9959     218.7027    290.15052            0   0.65191121 
    9960     218.7027    290.15054            0   0.65191121 
    9961     218.7027    290.15056            0   0.65191121 
    9962     218.7027    290.15058            0   0.65191121 
    9963     218.7027     290.1506            0   0.65191121 
    9964     218.7027    290.15062            0   0.65191121 
    9965     218.7027    290.15064            0   0.65191121 
    9966     218.7027    290.15066            0   0.65191121 
    9967     218.7027    290.15068            0   0.65191121 
    9968     218.7027     290.1507            0   0.65191121 
    9969     218.7027    290.15072            0   0.65191121 
    9970     218.7027    290.15074            0   0.65191121 
    9971     218.7027    290.15076            0   0.65191121 
    9972     218.7027    290.15078            0   0.65191121 
    9973     218.7027    290.15081            0   0.65191121 
    9974     218.7027    290.15083            0   0.65191121 
    9975     218.7027    290.15085            0   0.65191121 
    9976     218.7027    290.15087            0   0.65191121 
    9977     218.7027    290.15089            0   0.65191121 
    9978     218.7027    290.15091            0   0.65191121 
    9979     218.7027    290.15094            0   0.65191121 
    9980     218.7027    290.15096            0   0.65191121 
    9981     218.7027    290.15098            0   0.65191121 
    9982     218.7027      290.151            0   0.65191121 
    9983     218.7027    290.15102            0   0.65191121 
    9984     218.7027    290.15105            0   0.65191121 
    9985     218.7027    290.15107            0   0.65191121 
    9986     218.7027    290.15109            0   0.65191121 
    9987     218.7027    290.15111            0   0.65191121 
    9988     218.7027    290.15113            0   0.65191121 
    9989     218.7027    290.15116            0   0.65191121 
    9990     218.7027    290.15118            0   0.65191121 
    9991     218.7027     290.1512            0   0.65191121 
    9992     218.7027    290.15122            0   0.65191121 
    9993     218.7027    290.15124            0   0.65191121 
    9994     218.7027    290.15126            0   0.65191121 
    9995     218.7027    290.15128            0   0.65191121 
    9996     218.7027     290.1513            0   0.65191121 
    9997     218.7027    290.15132            0   0.65191121 
    9998     218.7027    290.15134            0   0.65191121 
    9999     218.7027    290.15136            0   0.65191121 
   10000     218.7027    290.15138            0   0.65191121 
Loop time of 39.4537 on 1 procs for 10000 steps with 2 atoms

Performance: 21.899 ns/day, 1.096 hours/ns, 253.462 timesteps/s
100.0% CPU use with 1 MPI tasks x no OpenMP threads

MPI task timing breakdown:
Section |  min time  |  avg time  |  max time  |%varavg| %total
---------------------------------------------------------------
Pair    | 39.19      | 39.19      | 39.19      |   0.0 | 99.33
Neigh   | 0.00022101 | 0.00022101 | 0.00022101 |   0.0 |  0.00
Comm    | 0.009165   | 0.009165   | 0.009165   |   0.0 |  0.02
Output  | 0.24444    | 0.24444    | 0.24444    |   0.0 |  0.62
Modify  | 0.0053544  | 0.0053544  | 0.0053544  |   0.0 |  0.01
Other   |            | 0.004648   |            |       |  0.01

Nlocal:    2 ave 2 max 2 min
Histogram: 1 0 0 0 0 0 0 0 0 0
Nghost:    14 ave 14 max 14 min
Histogram: 1 0 0 0 0 0 0 0 0 0
Neighs:    0 ave 0 max 0 min
Histogram: 1 0 0 0 0 0 0 0 0 0

Total # of neighbors = 0
Ave neighs/atom = 0
Neighbor list builds = 83
Dangerous builds = 0
Total wall time: 0:01:22
