ITEM: TIMESTEP
0
ITEM: NUMBER OF ATOMS
2
ITEM: BOX BOUNDS pp pp pp
0.0000000000000000e+00 1.8620600000000000e+01
0.0000000000000000e+00 1.8620600000000000e+01
0.0000000000000000e+00 1.8620600000000000e+01
ITEM: ATOMS id type xs ys zs
1 1 0.120755 0.336029 0.059033
2 1 0.14123 0.269342 0.994885
ITEM: TIMESTEP
1
ITEM: NUMBER OF ATOMS
2
ITEM: BOX BOUNDS pp pp pp
0.0000000000000000e+00 1.8620600000000000e+01
0.0000000000000000e+00 1.8620600000000000e+01
0.0000000000000000e+00 1.8620600000000000e+01
ITEM: ATOMS id type xs ys zs
1 1 0.120755 0.336029 0.059033
2 1 0.14123 0.269342 0.994885
