ITEM: TIMESTEP
0
ITEM: NUMBER OF ENTRIES
6
ITEM: BOX BOUNDS pp pp pp
0 18.6206
0 18.6206
0 18.6206
ITEM: ENTRIES index c_1[1] c_1[2] c_1[3] c_1[4] 
1 1 2.3 6.28 1.13 
2 1 1.37 6.26 1.5 
3 1 2.31 5.89 0.210001 
4 1 2.66 5.05 18.4806 
5 1 3.01 4.88 19.4006 
6 1 1.77 4.6 18.3606 
ITEM: TIMESTEP
1
ITEM: NUMBER OF ENTRIES
6
ITEM: BOX BOUNDS pp pp pp
0 18.6206
0 18.6206
0 18.6206
ITEM: ENTRIES index c_1[1] c_1[2] c_1[3] c_1[4] 
1 1 2.3 6.28 1.13 
2 1 1.37 6.26 1.5 
3 1 2.31 5.89 0.210001 
4 1 2.66 5.05 18.4806 
5 1 3.01 4.88 19.4006 
6 1 1.77 4.6 18.3606 
