Header
2 atoms
2 bodies
3 atom types
0 18.6206 xlo xhi
0 18.6206 ylo yhi
0 18.6206 zlo zhi

Atoms

1 1 1 18.016 9.846998 9.08413 13.61853 0 0 0 
2 1 1 18.016 10.760844 11.68574 13.13748 0 0 0 

Bodies

1 1 15
3
 1.58  1.05  1.22 -0.08 -0.32  0.51
-0.0469982 -0.0341297 -0.0285346
0.493002 -0.32413 0.771465
0.253002 0.86587 -0.318535
2 1 15
3
 1.12  1.12  1.62  0.49  0.08  0.35
-0.0408437 -0.0257371 0.0425222
-0.210844 0.804263 -0.497478
0.859156 -0.395737 -0.177478
