ITEM: TIMESTEP
0
ITEM: NUMBER OF ATOMS
6
ITEM: BOX BOUNDS pp pp pp
0 18.6206
0 18.6206
0 18.6206
ITEM: ATOMS id type xs ys zs
1 1 9.8 9.05 13.59 
2 1 10.34 8.76 14.39 
3 1 10.1 9.95 13.3 
4 1 10.72 11.66 13.18 
5 1 10.55 12.49 12.64 
6 1 11.62 11.29 12.96 
ITEM: TIMESTEP
1
ITEM: NUMBER OF ATOMS
6
ITEM: BOX BOUNDS pp pp pp
0 18.6206
0 18.6206
0 18.6206
ITEM: ATOMS id type xs ys zs
1 1 9.80293 9.05245 13.5876 
2 1 10.3428 8.76266 14.3878 
3 1 10.1019 9.95306 13.2984 
4 1 10.7172 11.6575 13.1824 
5 1 10.5467 12.4874 12.6424 
6 1 11.6174 11.288 12.9624 
ITEM: TIMESTEP
2
ITEM: NUMBER OF ATOMS
6
ITEM: BOX BOUNDS pp pp pp
0 18.6206
0 18.6206
0 18.6206
ITEM: ATOMS id type xs ys zs
1 1 9.80587 9.0547 13.5851 
2 1 10.3452 8.76554 14.3858 
3 1 10.1017 9.95712 13.2983 
4 1 10.7145 11.655 13.1847 
5 1 10.5425 12.4847 12.6448 
6 1 11.6154 11.2872 12.9647 
ITEM: TIMESTEP
3
ITEM: NUMBER OF ATOMS
6
ITEM: BOX BOUNDS pp pp pp
0 18.6206
0 18.6206
0 18.6206
ITEM: ATOMS id type xs ys zs
1 1 9.80881 9.05674 13.5826 
2 1 10.3474 8.76863 14.3842 
3 1 10.0994 9.96216 13.2999 
4 1 10.7119 11.6526 13.1869 
5 1 10.5375 12.4818 12.6471 
6 1 11.614 11.2876 12.967 
ITEM: TIMESTEP
4
ITEM: NUMBER OF ATOMS
6
ITEM: BOX BOUNDS pp pp pp
0 18.6206
0 18.6206
0 18.6206
ITEM: ATOMS id type xs ys zs
1 1 9.81176 9.05857 13.58 
2 1 10.3492 8.7719 14.3829 
3 1 10.0949 9.96809 13.303 
4 1 10.7096 11.6503 13.1891 
5 1 10.5317 12.4789 12.6495 
6 1 11.6132 11.2892 12.9692 
ITEM: TIMESTEP
5
ITEM: NUMBER OF ATOMS
6
ITEM: BOX BOUNDS pp pp pp
0 18.6206
0 18.6206
0 18.6206
ITEM: ATOMS id type xs ys zs
1 1 9.81472 9.0602 13.5773 
2 1 10.3506 8.77532 14.3819 
3 1 10.0883 9.97481 13.3076 
4 1 10.7074 11.648 13.1912 
5 1 10.5251 12.4759 12.6519 
6 1 11.613 11.2919 12.9714 
ITEM: TIMESTEP
6
ITEM: NUMBER OF ATOMS
6
ITEM: BOX BOUNDS pp pp pp
0 18.6206
0 18.6206
0 18.6206
ITEM: ATOMS id type xs ys zs
1 1 9.81769 9.06163 13.5746 
2 1 10.3516 8.77884 14.3813 
3 1 10.0796 9.98218 13.3137 
4 1 10.7053 11.6459 13.1933 
5 1 10.5177 12.4727 12.6542 
6 1 11.6133 11.2958 12.9734 
ITEM: TIMESTEP
7
ITEM: NUMBER OF ATOMS
6
ITEM: BOX BOUNDS pp pp pp
0 18.6206
0 18.6206
0 18.6206
ITEM: ATOMS id type xs ys zs
1 1 9.82068 9.06287 13.5719 
2 1 10.3521 8.78241 14.381 
3 1 10.0688 9.99005 13.3212 
4 1 10.7034 11.6438 13.1953 
5 1 10.5096 12.4694 12.6566 
6 1 11.614 11.3007 12.9754 
ITEM: TIMESTEP
8
ITEM: NUMBER OF ATOMS
6
ITEM: BOX BOUNDS pp pp pp
0 18.6206
0 18.6206
0 18.6206
ITEM: ATOMS id type xs ys zs
1 1 9.82368 9.06393 13.5691 
2 1 10.3522 8.78598 14.381 
3 1 10.0561 9.99821 13.3299 
4 1 10.7017 11.6419 13.1973 
5 1 10.5007 12.4659 12.6589 
6 1 11.6152 11.3067 12.9772 
ITEM: TIMESTEP
9
ITEM: NUMBER OF ATOMS
6
ITEM: BOX BOUNDS pp pp pp
0 18.6206
0 18.6206
0 18.6206
ITEM: ATOMS id type xs ys zs
1 1 9.8267 9.06483 13.5663 
2 1 10.3517 8.78946 14.3813 
3 1 10.0417 10.0064 13.3398 
4 1 10.7002 11.64 13.1993 
5 1 10.4912 12.4623 12.6612 
6 1 11.6167 11.3136 12.9787 
ITEM: TIMESTEP
10
ITEM: NUMBER OF ATOMS
6
ITEM: BOX BOUNDS pp pp pp
0 18.6206
0 18.6206
0 18.6206
ITEM: ATOMS id type xs ys zs
1 1 9.82973 9.06557 13.5634 
2 1 10.3506 8.79277 14.3819 
3 1 10.0256 10.0145 13.3506 
4 1 10.6987 11.6383 13.2012 
5 1 10.4811 12.4586 12.6635 
6 1 11.6185 11.3213 12.9801 
ITEM: TIMESTEP
11
ITEM: NUMBER OF ATOMS
6
ITEM: BOX BOUNDS pp pp pp
0 18.6206
0 18.6206
0 18.6206
ITEM: ATOMS id type xs ys zs
1 1 9.83276 9.06617 13.5605 
2 1 10.349 8.79584 14.3828 
3 1 10.0083 10.0221 13.3621 
4 1 10.6974 11.6367 13.203 
5 1 10.4705 12.4548 12.6658 
6 1 11.6204 11.3299 12.9812 
ITEM: TIMESTEP
12
ITEM: NUMBER OF ATOMS
6
ITEM: BOX BOUNDS pp pp pp
0 18.6206
0 18.6206
0 18.6206
ITEM: ATOMS id type xs ys zs
1 1 9.83579 9.06663 13.5577 
2 1 10.3468 8.79859 14.384 
3 1 9.98994 10.0292 13.374 
4 1 10.6963 11.6353 13.2049 
5 1 10.4595 12.4509 12.6681 
6 1 11.6225 11.3391 12.9821 
ITEM: TIMESTEP
13
ITEM: NUMBER OF ATOMS
6
ITEM: BOX BOUNDS pp pp pp
0 18.6206
0 18.6206
0 18.6206
ITEM: ATOMS id type xs ys zs
1 1 9.83882 9.06697 13.5548 
2 1 10.344 8.80099 14.3853 
3 1 9.97062 10.0357 13.3863 
4 1 10.6952 11.634 13.2067 
5 1 10.448 12.4469 12.6705 
6 1 11.6247 11.3491 12.9827 
ITEM: TIMESTEP
14
ITEM: NUMBER OF ATOMS
6
ITEM: BOX BOUNDS pp pp pp
0 18.6206
0 18.6206
0 18.6206
ITEM: ATOMS id type xs ys zs
1 1 9.84184 9.06719 13.552 
2 1 10.3406 8.80298 14.3869 
3 1 9.95062 10.0413 13.3988 
4 1 10.6943 11.6329 13.2085 
5 1 10.4362 12.4429 12.6729 
6 1 11.6268 11.3595 12.9829 
ITEM: TIMESTEP
15
ITEM: NUMBER OF ATOMS
6
ITEM: BOX BOUNDS pp pp pp
0 18.6206
0 18.6206
0 18.6206
ITEM: ATOMS id type xs ys zs
1 1 9.84485 9.0673 13.5491 
2 1 10.3366 8.8045 14.3887 
3 1 9.9302 10.046 13.4112 
4 1 10.6934 11.632 13.2103 
5 1 10.4242 12.4387 12.6754 
6 1 11.6289 11.3704 12.9829 
ITEM: TIMESTEP
16
ITEM: NUMBER OF ATOMS
6
ITEM: BOX BOUNDS pp pp pp
0 18.6206
0 18.6206
0 18.6206
ITEM: ATOMS id type xs ys zs
1 1 9.84784 9.0673 13.5463 
2 1 10.3319 8.8055 14.3906 
3 1 9.90961 10.0497 13.4235 
4 1 10.6927 11.6313 13.212 
5 1 10.4119 12.4346 12.6779 
6 1 11.6309 11.3816 12.9824 
ITEM: TIMESTEP
17
ITEM: NUMBER OF ATOMS
6
ITEM: BOX BOUNDS pp pp pp
0 18.6206
0 18.6206
0 18.6206
ITEM: ATOMS id type xs ys zs
1 1 9.85081 9.0672 13.5436 
2 1 10.3266 8.80594 14.3927 
3 1 9.88909 10.0526 13.4355 
4 1 10.692 11.6307 13.2138 
5 1 10.3996 12.4303 12.6804 
6 1 11.6326 11.3929 12.9815 
ITEM: TIMESTEP
18
ITEM: NUMBER OF ATOMS
6
ITEM: BOX BOUNDS pp pp pp
0 18.6206
0 18.6206
0 18.6206
ITEM: ATOMS id type xs ys zs
1 1 9.85376 9.067 13.5409 
2 1 10.3207 8.80578 14.3949 
3 1 9.86884 10.0545 13.4471 
4 1 10.6914 11.6304 13.2156 
5 1 10.3872 12.4261 12.6829 
6 1 11.6341 11.4043 12.9802 
ITEM: TIMESTEP
19
ITEM: NUMBER OF ATOMS
6
ITEM: BOX BOUNDS pp pp pp
0 18.6206
0 18.6206
0 18.6206
ITEM: ATOMS id type xs ys zs
1 1 9.85668 9.06669 13.5382 
2 1 10.3141 8.805 14.3973 
3 1 9.84909 10.0554 13.4581 
4 1 10.6908 11.6302 13.2174 
5 1 10.3748 12.4218 12.6854 
6 1 11.6353 11.4155 12.9783 
ITEM: TIMESTEP
20
ITEM: NUMBER OF ATOMS
6
ITEM: BOX BOUNDS pp pp pp
0 18.6206
0 18.6206
0 18.6206
ITEM: ATOMS id type xs ys zs
1 1 9.85956 9.06627 13.5356 
2 1 10.3069 8.80357 14.3997 
3 1 9.83007 10.0556 13.4686 
4 1 10.6903 11.6303 13.2191 
5 1 10.3625 12.4175 12.6879 
6 1 11.6362 11.4266 12.976 
ITEM: TIMESTEP
21
ITEM: NUMBER OF ATOMS
6
ITEM: BOX BOUNDS pp pp pp
0 18.6206
0 18.6206
0 18.6206
ITEM: ATOMS id type xs ys zs
1 1 9.86241 9.06574 13.5331 
2 1 10.299 8.80147 14.4021 
3 1 9.81198 10.055 13.4783 
4 1 10.6898 11.6306 13.2209 
5 1 10.3504 12.4133 12.6904 
6 1 11.6367 11.4373 12.9731 
ITEM: TIMESTEP
22
ITEM: NUMBER OF ATOMS
6
ITEM: BOX BOUNDS pp pp pp
0 18.6206
0 18.6206
0 18.6206
ITEM: ATOMS id type xs ys zs
1 1 9.86522 9.06508 13.5306 
2 1 10.2904 8.79873 14.4046 
3 1 9.795 10.0537 13.4873 
4 1 10.6894 11.6311 13.2227 
5 1 10.3384 12.4092 12.6928 
6 1 11.6368 11.4475 12.9698 
ITEM: TIMESTEP
23
ITEM: NUMBER OF ATOMS
6
ITEM: BOX BOUNDS pp pp pp
0 18.6206
0 18.6206
0 18.6206
ITEM: ATOMS id type xs ys zs
1 1 9.86793 9.06425 13.5282 
2 1 10.2814 8.79535 14.4071 
3 1 9.77975 10.0518 13.4952 
4 1 10.6889 11.6319 13.2245 
5 1 10.3269 12.4053 12.6953 
6 1 11.6365 11.4573 12.966 
ITEM: TIMESTEP
24
ITEM: NUMBER OF ATOMS
6
ITEM: BOX BOUNDS pp pp pp
0 18.6206
0 18.6206
0 18.6206
ITEM: ATOMS id type xs ys zs
1 1 9.87056 9.06324 13.5259 
2 1 10.272 8.79138 14.4094 
3 1 9.76643 10.0495 13.5021 
4 1 10.6885 11.633 13.2264 
5 1 10.3157 12.4017 12.6978 
6 1 11.6359 11.4665 12.9618 
ITEM: TIMESTEP
25
ITEM: NUMBER OF ATOMS
6
ITEM: BOX BOUNDS pp pp pp
0 18.6206
0 18.6206
0 18.6206
ITEM: ATOMS id type xs ys zs
1 1 9.87308 9.06205 13.5237 
2 1 10.2622 8.78686 14.4117 
3 1 9.75524 10.0469 13.5078 
4 1 10.688 11.6343 13.2282 
5 1 10.3049 12.3984 12.7003 
6 1 11.6349 11.4751 12.9572 
ITEM: TIMESTEP
26
ITEM: NUMBER OF ATOMS
6
ITEM: BOX BOUNDS pp pp pp
0 18.6206
0 18.6206
0 18.6206
ITEM: ATOMS id type xs ys zs
1 1 9.87549 9.06064 13.5216 
2 1 10.252 8.78189 14.4139 
3 1 9.7463 10.0442 13.5124 
4 1 10.6876 11.6358 13.23 
5 1 10.2946 12.3954 12.7028 
6 1 11.6335 11.483 12.9523 
ITEM: TIMESTEP
27
ITEM: NUMBER OF ATOMS
6
ITEM: BOX BOUNDS pp pp pp
0 18.6206
0 18.6206
0 18.6206
ITEM: ATOMS id type xs ys zs
1 1 9.87779 9.05901 13.5196 
2 1 10.2416 8.77653 14.416 
3 1 9.73974 10.0414 13.5159 
4 1 10.6871 11.6377 13.2319 
5 1 10.2848 12.3928 12.7052 
6 1 11.6317 11.4903 12.947 
ITEM: TIMESTEP
28
ITEM: NUMBER OF ATOMS
6
ITEM: BOX BOUNDS pp pp pp
0 18.6206
0 18.6206
0 18.6206
ITEM: ATOMS id type xs ys zs
1 1 9.87996 9.05715 13.5176 
2 1 10.2309 8.77083 14.418 
3 1 9.73566 10.0386 13.5184 
4 1 10.6866 11.6398 13.2337 
5 1 10.2754 12.3906 12.7077 
6 1 11.6296 11.4968 12.9414 
ITEM: TIMESTEP
29
ITEM: NUMBER OF ATOMS
6
ITEM: BOX BOUNDS pp pp pp
0 18.6206
0 18.6206
0 18.6206
ITEM: ATOMS id type xs ys zs
1 1 9.88201 9.05506 13.5158 
2 1 10.2199 8.76483 14.4198 
3 1 9.73415 10.036 13.5198 
4 1 10.686 11.6422 13.2356 
5 1 10.2665 12.3887 12.7101 
6 1 11.6271 11.5026 12.9355 
ITEM: TIMESTEP
30
ITEM: NUMBER OF ATOMS
6
ITEM: BOX BOUNDS pp pp pp
0 18.6206
0 18.6206
0 18.6206
ITEM: ATOMS id type xs ys zs
1 1 9.88393 9.05274 13.514 
2 1 10.2087 8.75861 14.4216 
3 1 9.73525 10.0335 13.5203 
4 1 10.6854 11.6449 13.2375 
5 1 10.2582 12.3873 12.7125 
6 1 11.6243 11.5075 12.9293 
ITEM: TIMESTEP
31
ITEM: NUMBER OF ATOMS
6
ITEM: BOX BOUNDS pp pp pp
0 18.6206
0 18.6206
0 18.6206
ITEM: ATOMS id type xs ys zs
1 1 9.88573 9.05018 13.5123 
2 1 10.1972 8.7522 14.4233 
3 1 9.73901 10.0313 13.52 
4 1 10.6848 11.6478 13.2394 
5 1 10.2503 12.3863 12.7148 
6 1 11.6211 11.5117 12.9229 
ITEM: TIMESTEP
32
ITEM: NUMBER OF ATOMS
6
ITEM: BOX BOUNDS pp pp pp
0 18.6206
0 18.6206
0 18.6206
ITEM: ATOMS id type xs ys zs
1 1 9.8874 9.04739 13.5106 
2 1 10.1854 8.74566 14.4249 
3 1 9.74547 10.0292 13.5189 
4 1 10.6842 11.6509 13.2413 
5 1 10.2428 12.3857 12.7171 
6 1 11.6175 11.5151 12.9162 
ITEM: TIMESTEP
33
ITEM: NUMBER OF ATOMS
6
ITEM: BOX BOUNDS pp pp pp
0 18.6206
0 18.6206
0 18.6206
ITEM: ATOMS id type xs ys zs
1 1 9.88895 9.04438 13.509 
2 1 10.1734 8.73904 14.4264 
3 1 9.75462 10.0272 13.517 
4 1 10.6835 11.6543 13.2432 
5 1 10.2359 12.3855 12.7193 
6 1 11.6136 11.5177 12.9093 
ITEM: TIMESTEP
34
ITEM: NUMBER OF ATOMS
6
ITEM: BOX BOUNDS pp pp pp
0 18.6206
0 18.6206
0 18.6206
ITEM: ATOMS id type xs ys zs
1 1 9.89038 9.04114 13.5075 
2 1 10.1612 8.73239 14.4278 
3 1 9.76645 10.0254 13.5145 
4 1 10.6828 11.658 13.2451 
5 1 10.2294 12.3858 12.7215 
6 1 11.6094 11.5195 12.9022 
ITEM: TIMESTEP
35
ITEM: NUMBER OF ATOMS
6
ITEM: BOX BOUNDS pp pp pp
0 18.6206
0 18.6206
0 18.6206
ITEM: ATOMS id type xs ys zs
1 1 9.89169 9.0377 13.506 
2 1 10.1488 8.72575 14.4292 
3 1 9.78093 10.0235 13.5114 
4 1 10.682 11.6618 13.247 
5 1 10.2234 12.3865 12.7237 
6 1 11.6047 11.5206 12.895 
ITEM: TIMESTEP
36
ITEM: NUMBER OF ATOMS
6
ITEM: BOX BOUNDS pp pp pp
0 18.6206
0 18.6206
0 18.6206
ITEM: ATOMS id type xs ys zs
1 1 9.89287 9.03406 13.5046 
2 1 10.1361 8.71917 14.4305 
3 1 9.79799 10.0215 13.5078 
4 1 10.6812 11.6659 13.249 
5 1 10.2177 12.3876 12.7258 
6 1 11.5997 11.5209 12.8876 
ITEM: TIMESTEP
37
ITEM: NUMBER OF ATOMS
6
ITEM: BOX BOUNDS pp pp pp
0 18.6206
0 18.6206
0 18.6206
ITEM: ATOMS id type xs ys zs
1 1 9.89395 9.03025 13.5031 
2 1 10.1232 8.7127 14.4318 
3 1 9.81748 10.0193 13.5038 
4 1 10.6804 11.6702 13.2509 
5 1 10.2124 12.3891 12.7278 
6 1 11.5944 11.5206 12.88 
ITEM: TIMESTEP
38
ITEM: NUMBER OF ATOMS
6
ITEM: BOX BOUNDS pp pp pp
0 18.6206
0 18.6206
0 18.6206
ITEM: ATOMS id type xs ys zs
1 1 9.89495 9.02629 13.5017 
2 1 10.1101 8.70641 14.4329 
3 1 9.83874 10.0167 13.4995 
4 1 10.6796 11.6747 13.2528 
5 1 10.2073 12.3908 12.7298 
6 1 11.5887 11.5196 12.8723 
ITEM: TIMESTEP
39
ITEM: NUMBER OF ATOMS
6
ITEM: BOX BOUNDS pp pp pp
0 18.6206
0 18.6206
0 18.6206
ITEM: ATOMS id type xs ys zs
1 1 9.89587 9.02222 13.5004 
2 1 10.0968 8.70035 14.434 
3 1 9.86165 10.0136 13.495 
4 1 10.6787 11.6793 13.2548 
5 1 10.2025 12.3927 12.7317 
6 1 11.5826 11.5181 12.8645 
ITEM: TIMESTEP
40
ITEM: NUMBER OF ATOMS
6
ITEM: BOX BOUNDS pp pp pp
0 18.6206
0 18.6206
0 18.6206
ITEM: ATOMS id type xs ys zs
1 1 9.89672 9.01805 13.499 
2 1 10.0833 8.69453 14.4351 
3 1 9.88611 10.01 13.4903 
4 1 10.6779 11.6841 13.2568 
5 1 10.1978 12.3948 12.7336 
6 1 11.5762 11.5161 12.8567 
ITEM: TIMESTEP
41
ITEM: NUMBER OF ATOMS
6
ITEM: BOX BOUNDS pp pp pp
0 18.6206
0 18.6206
0 18.6206
ITEM: ATOMS id type xs ys zs
1 1 9.8975 9.01379 13.4977 
2 1 10.0697 8.68897 14.436 
3 1 9.91198 10.0056 13.4856 
4 1 10.677 11.689 13.2587 
5 1 10.1932 12.3971 12.7354 
6 1 11.5695 11.5136 12.8487 
ITEM: TIMESTEP
42
ITEM: NUMBER OF ATOMS
6
ITEM: BOX BOUNDS pp pp pp
0 18.6206
0 18.6206
0 18.6206
ITEM: ATOMS id type xs ys zs
1 1 9.89823 9.00944 13.4963 
2 1 10.0559 8.68368 14.4369 
3 1 9.93912 10.0005 13.4808 
4 1 10.6762 11.694 13.2607 
5 1 10.1887 12.3995 12.7372 
6 1 11.5624 11.5108 12.8407 
ITEM: TIMESTEP
43
ITEM: NUMBER OF ATOMS
6
ITEM: BOX BOUNDS pp pp pp
0 18.6206
0 18.6206
0 18.6206
ITEM: ATOMS id type xs ys zs
1 1 9.89889 9.00504 13.495 
2 1 10.0419 8.67868 14.4377 
3 1 9.96766 9.99448 13.476 
4 1 10.6754 11.6991 13.2627 
5 1 10.1843 12.402 12.739 
6 1 11.555 11.5078 12.8328 
ITEM: TIMESTEP
44
ITEM: NUMBER OF ATOMS
6
ITEM: BOX BOUNDS pp pp pp
0 18.6206
0 18.6206
0 18.6206
ITEM: ATOMS id type xs ys zs
1 1 9.89949 9.00057 13.4937 
2 1 10.0278 8.67396 14.4384 
3 1 9.99749 9.98748 13.4712 
4 1 10.6745 11.7044 13.2647 
5 1 10.1799 12.4046 12.7409 
6 1 11.5474 11.5045 12.8248 
ITEM: TIMESTEP
45
ITEM: NUMBER OF ATOMS
6
ITEM: BOX BOUNDS pp pp pp
0 18.6206
0 18.6206
0 18.6206
ITEM: ATOMS id type xs ys zs
1 1 9.90005 8.99607 13.4923 
2 1 10.0134 8.66954 14.439 
3 1 10.0283 9.97941 13.4665 
4 1 10.6737 11.7097 13.2666 
5 1 10.1755 12.4074 12.7428 
6 1 11.5395 11.5011 12.8169 
ITEM: TIMESTEP
46
ITEM: NUMBER OF ATOMS
6
ITEM: BOX BOUNDS pp pp pp
0 18.6206
0 18.6206
0 18.6206
ITEM: ATOMS id type xs ys zs
1 1 9.90056 8.99153 13.491 
2 1 9.99892 8.66543 14.4395 
3 1 10.0599 9.97024 13.462 
4 1 10.6729 11.7151 13.2686 
5 1 10.171 12.4102 12.7448 
6 1 11.5313 11.4977 12.8091 
ITEM: TIMESTEP
47
ITEM: NUMBER OF ATOMS
6
ITEM: BOX BOUNDS pp pp pp
0 18.6206
0 18.6206
0 18.6206
ITEM: ATOMS id type xs ys zs
1 1 9.90106 8.98697 13.4897 
2 1 9.98424 8.66164 14.4399 
3 1 10.0917 9.95998 13.4578 
4 1 10.6722 11.7206 13.2705 
5 1 10.1664 12.413 12.7469 
6 1 11.5231 11.4945 12.8013 
ITEM: TIMESTEP
48
ITEM: NUMBER OF ATOMS
6
ITEM: BOX BOUNDS pp pp pp
0 18.6206
0 18.6206
0 18.6206
ITEM: ATOMS id type xs ys zs
1 1 9.90155 8.98238 13.4884 
2 1 9.96939 8.65818 14.4402 
3 1 10.1232 9.94871 13.454 
4 1 10.6714 11.7261 13.2724 
5 1 10.1615 12.4158 12.7492 
6 1 11.5147 11.4916 12.7936 
ITEM: TIMESTEP
49
ITEM: NUMBER OF ATOMS
6
ITEM: BOX BOUNDS pp pp pp
0 18.6206
0 18.6206
0 18.6206
ITEM: ATOMS id type xs ys zs
1 1 9.90206 8.97778 13.487 
2 1 9.95439 8.65504 14.4404 
3 1 10.1539 9.93661 13.4506 
4 1 10.6708 11.7316 13.2742 
5 1 10.1563 12.4184 12.7517 
6 1 11.5064 11.4892 12.786 
ITEM: TIMESTEP
50
ITEM: NUMBER OF ATOMS
6
ITEM: BOX BOUNDS pp pp pp
0 18.6206
0 18.6206
0 18.6206
ITEM: ATOMS id type xs ys zs
1 1 9.90261 8.97315 13.4857 
2 1 9.93926 8.65221 14.4404 
3 1 10.1832 9.92391 13.4478 
4 1 10.6702 11.7372 13.276 
5 1 10.1506 12.4208 12.7544 
6 1 11.4981 11.4874 12.7785 
ITEM: TIMESTEP
51
ITEM: NUMBER OF ATOMS
6
ITEM: BOX BOUNDS pp pp pp
0 18.6206
0 18.6206
0 18.6206
ITEM: ATOMS id type xs ys zs
1 1 9.90322 8.9685 13.4843 
2 1 9.92402 8.64969 14.4402 
3 1 10.2105 9.91093 13.4457 
4 1 10.6698 11.7428 13.2778 
5 1 10.1445 12.4229 12.7573 
6 1 11.49 11.4865 12.771 
ITEM: TIMESTEP
52
ITEM: NUMBER OF ATOMS
6
ITEM: BOX BOUNDS pp pp pp
0 18.6206
0 18.6206
0 18.6206
ITEM: ATOMS id type xs ys zs
1 1 9.90388 8.9638 13.483 
2 1 9.90866 8.64742 14.4398 
3 1 10.2356 9.89791 13.4443 
4 1 10.6694 11.7483 13.2796 
5 1 10.1378 12.4246 12.7605 
6 1 11.4822 11.4865 12.7637 
ITEM: TIMESTEP
53
ITEM: NUMBER OF ATOMS
6
ITEM: BOX BOUNDS pp pp pp
0 18.6206
0 18.6206
0 18.6206
ITEM: ATOMS id type xs ys zs
1 1 9.90462 8.95903 13.4816 
2 1 9.89319 8.64537 14.4393 
3 1 10.2582 9.88511 13.4435 
4 1 10.6691 11.7539 13.2813 
5 1 10.1306 12.426 12.764 
6 1 11.4747 11.4876 12.7564 
ITEM: TIMESTEP
54
ITEM: NUMBER OF ATOMS
6
ITEM: BOX BOUNDS pp pp pp
0 18.6206
0 18.6206
0 18.6206
ITEM: ATOMS id type xs ys zs
1 1 9.90542 8.9542 13.4802 
2 1 9.87759 8.64348 14.4386 
3 1 10.2782 9.87276 13.4435 
4 1 10.669 11.7594 13.2829 
5 1 10.1228 12.4271 12.7678 
6 1 11.4676 11.4897 12.7492 
ITEM: TIMESTEP
55
ITEM: NUMBER OF ATOMS
6
ITEM: BOX BOUNDS pp pp pp
0 18.6206
0 18.6206
0 18.6206
ITEM: ATOMS id type xs ys zs
1 1 9.90629 8.94928 13.4789 
2 1 9.86186 8.64172 14.4376 
3 1 10.2956 9.86107 13.4442 
4 1 10.669 11.7649 13.2845 
5 1 10.1145 12.4277 12.7721 
6 1 11.4609 11.4931 12.742 
ITEM: TIMESTEP
56
ITEM: NUMBER OF ATOMS
6
ITEM: BOX BOUNDS pp pp pp
0 18.6206
0 18.6206
0 18.6206
ITEM: ATOMS id type xs ys zs
1 1 9.90725 8.94428 13.4775 
2 1 9.84598 8.64004 14.4364 
3 1 10.3101 9.85024 13.4455 
4 1 10.6691 11.7704 13.286 
5 1 10.1055 12.428 12.7767 
6 1 11.4546 11.4977 12.7348 
ITEM: TIMESTEP
57
ITEM: NUMBER OF ATOMS
6
ITEM: BOX BOUNDS pp pp pp
0 18.6206
0 18.6206
0 18.6206
ITEM: ATOMS id type xs ys zs
1 1 9.90828 8.93918 13.4762 
2 1 9.82993 8.63839 14.4348 
3 1 10.3219 9.84039 13.4474 
4 1 10.6693 11.7759 13.2874 
5 1 10.096 12.4277 12.7817 
6 1 11.4488 11.5036 12.7276 
ITEM: TIMESTEP
58
ITEM: NUMBER OF ATOMS
6
ITEM: BOX BOUNDS pp pp pp
0 18.6206
0 18.6206
0 18.6206
ITEM: ATOMS id type xs ys zs
1 1 9.90938 8.934 13.4748 
2 1 9.8137 8.63673 14.433 
3 1 10.331 9.83164 13.4499 
4 1 10.6696 11.7813 13.2889 
5 1 10.0859 12.427 12.7871 
6 1 11.4435 11.5107 12.7204 
ITEM: TIMESTEP
59
ITEM: NUMBER OF ATOMS
6
ITEM: BOX BOUNDS pp pp pp
0 18.6206
0 18.6206
0 18.6206
ITEM: ATOMS id type xs ys zs
1 1 9.91057 8.92873 13.4735 
2 1 9.79728 8.63502 14.4309 
3 1 10.3373 9.82405 13.4529 
4 1 10.67 11.7867 13.2902 
5 1 10.0753 12.4258 12.793 
6 1 11.4386 11.519 12.7132 
ITEM: TIMESTEP
60
ITEM: NUMBER OF ATOMS
6
ITEM: BOX BOUNDS pp pp pp
0 18.6206
0 18.6206
0 18.6206
ITEM: ATOMS id type xs ys zs
1 1 9.91183 8.92339 13.4722 
2 1 9.78066 8.63319 14.4284 
3 1 10.3409 9.81767 13.4563 
4 1 10.6705 11.7921 13.2915 
5 1 10.0642 12.4241 12.7993 
6 1 11.4341 11.5287 12.706 
ITEM: TIMESTEP
61
ITEM: NUMBER OF ATOMS
6
ITEM: BOX BOUNDS pp pp pp
0 18.6206
0 18.6206
0 18.6206
ITEM: ATOMS id type xs ys zs
1 1 9.91317 8.91797 13.4709 
2 1 9.76382 8.63121 14.4255 
3 1 10.3419 9.81248 13.46 
4 1 10.6712 11.7974 13.2927 
5 1 10.0526 12.4218 12.806 
6 1 11.4301 11.5395 12.6987 
ITEM: TIMESTEP
62
ITEM: NUMBER OF ATOMS
6
ITEM: BOX BOUNDS pp pp pp
0 18.6206
0 18.6206
0 18.6206
ITEM: ATOMS id type xs ys zs
1 1 9.9146 8.9125 13.4697 
2 1 9.74677 8.62902 14.4222 
3 1 10.3404 9.80847 13.4639 
4 1 10.6719 11.8027 13.2939 
5 1 10.0407 12.419 12.8132 
6 1 11.4264 11.5516 12.6914 
ITEM: TIMESTEP
63
ITEM: NUMBER OF ATOMS
6
ITEM: BOX BOUNDS pp pp pp
0 18.6206
0 18.6206
0 18.6206
ITEM: ATOMS id type xs ys zs
1 1 9.9161 8.90698 13.4686 
2 1 9.7295 8.62657 14.4184 
3 1 10.3364 9.80555 13.4679 
4 1 10.6727 11.8079 13.2951 
5 1 10.0285 12.4157 12.8208 
6 1 11.423 11.5649 12.684 
ITEM: TIMESTEP
64
ITEM: NUMBER OF ATOMS
6
ITEM: BOX BOUNDS pp pp pp
0 18.6206
0 18.6206
0 18.6206
ITEM: ATOMS id type xs ys zs
1 1 9.91769 8.90143 13.4674 
2 1 9.71202 8.62381 14.4142 
3 1 10.3301 9.80366 13.472 
4 1 10.6736 11.8131 13.2962 
5 1 10.0159 12.4118 12.8288 
6 1 11.4199 11.5793 12.6767 
ITEM: TIMESTEP
65
ITEM: NUMBER OF ATOMS
6
ITEM: BOX BOUNDS pp pp pp
0 18.6206
0 18.6206
0 18.6206
ITEM: ATOMS id type xs ys zs
1 1 9.91935 8.89587 13.4664 
2 1 9.69434 8.6207 14.4094 
3 1 10.3215 9.80267 13.4759 
4 1 10.6746 11.8182 13.2972 
5 1 10.0032 12.4074 12.8372 
6 1 11.417 11.5947 12.6694 
ITEM: TIMESTEP
66
ITEM: NUMBER OF ATOMS
6
ITEM: BOX BOUNDS pp pp pp
0 18.6206
0 18.6206
0 18.6206
ITEM: ATOMS id type xs ys zs
1 1 9.92109 8.8903 13.4654 
2 1 9.67649 8.61718 14.4041 
3 1 10.3108 9.80245 13.4797 
4 1 10.6756 11.8233 13.2982 
5 1 9.9904 12.4024 12.846 
6 1 11.4143 11.6113 12.662 
ITEM: TIMESTEP
67
ITEM: NUMBER OF ATOMS
6
ITEM: BOX BOUNDS pp pp pp
0 18.6206
0 18.6206
0 18.6206
ITEM: ATOMS id type xs ys zs
1 1 9.9229 8.88476 13.4645 
2 1 9.65849 8.61322 14.3983 
3 1 10.2982 9.80287 13.4832 
4 1 10.6767 11.8283 13.2991 
5 1 9.97752 12.397 12.8552 
6 1 11.4118 11.6288 12.6548 
ITEM: TIMESTEP
68
ITEM: NUMBER OF ATOMS
6
ITEM: BOX BOUNDS pp pp pp
0 18.6206
0 18.6206
0 18.6206
ITEM: ATOMS id type xs ys zs
1 1 9.92478 8.87925 13.4636 
2 1 9.64037 8.60878 14.3919 
3 1 10.2837 9.80376 13.4864 
4 1 10.6779 11.8332 13.3001 
5 1 9.96467 12.3911 12.8647 
6 1 11.4093 11.6472 12.6476 
ITEM: TIMESTEP
69
ITEM: NUMBER OF ATOMS
6
ITEM: BOX BOUNDS pp pp pp
0 18.6206
0 18.6206
0 18.6206
ITEM: ATOMS id type xs ys zs
1 1 9.92672 8.8738 13.4628 
2 1 9.62218 8.60383 14.3848 
3 1 10.2678 9.80498 13.4891 
4 1 10.679 11.8381 13.3009 
5 1 9.95193 12.3847 12.8745 
6 1 11.4068 11.6665 12.6405 
ITEM: TIMESTEP
70
ITEM: NUMBER OF ATOMS
6
ITEM: BOX BOUNDS pp pp pp
0 18.6206
0 18.6206
0 18.6206
ITEM: ATOMS id type xs ys zs
1 1 9.92871 8.86842 13.4621 
2 1 9.60396 8.59835 14.3772 
3 1 10.2505 9.80635 13.4914 
4 1 10.6802 11.8429 13.3018 
5 1 9.93938 12.3781 12.8845 
6 1 11.4044 11.6866 12.6335 
ITEM: TIMESTEP
71
ITEM: NUMBER OF ATOMS
6
ITEM: BOX BOUNDS pp pp pp
0 18.6206
0 18.6206
0 18.6206
ITEM: ATOMS id type xs ys zs
1 1 9.93074 8.86312 13.4615 
2 1 9.58576 8.59233 14.3689 
3 1 10.2321 9.80772 13.4932 
4 1 10.6814 11.8476 13.3026 
5 1 9.92708 12.3711 12.8948 
6 1 11.4018 11.7073 12.6268 
ITEM: TIMESTEP
72
ITEM: NUMBER OF ATOMS
6
ITEM: BOX BOUNDS pp pp pp
0 18.6206
0 18.6206
0 18.6206
ITEM: ATOMS id type xs ys zs
1 1 9.9328 8.85791 13.461 
2 1 9.56765 8.58577 14.3601 
3 1 10.2129 9.80896 13.4945 
4 1 10.6827 11.8523 13.3033 
5 1 9.9151 12.364 12.9053 
6 1 11.3992 11.7287 12.6202 
ITEM: TIMESTEP
73
ITEM: NUMBER OF ATOMS
6
ITEM: BOX BOUNDS pp pp pp
0 18.6206
0 18.6206
0 18.6206
ITEM: ATOMS id type xs ys zs
1 1 9.93488 8.85281 13.4605 
2 1 9.54969 8.57869 14.3506 
3 1 10.1933 9.80995 13.4953 
4 1 10.6838 11.8568 13.3041 
5 1 9.90351 12.3567 12.916 
6 1 11.3964 11.7506 12.6139 
ITEM: TIMESTEP
74
ITEM: NUMBER OF ATOMS
6
ITEM: BOX BOUNDS pp pp pp
0 18.6206
0 18.6206
0 18.6206
ITEM: ATOMS id type xs ys zs
1 1 9.93696 8.84783 13.4602 
2 1 9.53193 8.57114 14.3405 
3 1 10.1736 9.81056 13.4956 
4 1 10.685 11.8613 13.3048 
5 1 9.89236 12.3494 12.9267 
6 1 11.3935 11.7728 12.6079 
ITEM: TIMESTEP
75
ITEM: NUMBER OF ATOMS
6
ITEM: BOX BOUNDS pp pp pp
0 18.6206
0 18.6206
0 18.6206
ITEM: ATOMS id type xs ys zs
1 1 9.93903 8.84295 13.4598 
2 1 9.51444 8.56314 14.33 
3 1 10.154 9.81073 13.4956 
4 1 10.6861 11.8657 13.3054 
5 1 9.88172 12.3421 12.9376 
6 1 11.3903 11.7954 12.6022 
ITEM: TIMESTEP
76
ITEM: NUMBER OF ATOMS
6
ITEM: BOX BOUNDS pp pp pp
0 18.6206
0 18.6206
0 18.6206
ITEM: ATOMS id type xs ys zs
1 1 9.94108 8.8382 13.4596 
2 1 9.49726 8.55476 14.3189 
3 1 10.135 9.81042 13.4952 
4 1 10.6872 11.87 13.3061 
5 1 9.8716 12.3351 12.9485 
6 1 11.387 11.8181 12.5969 
ITEM: TIMESTEP
77
ITEM: NUMBER OF ATOMS
6
ITEM: BOX BOUNDS pp pp pp
0 18.6206
0 18.6206
0 18.6206
ITEM: ATOMS id type xs ys zs
1 1 9.94309 8.83356 13.4593 
2 1 9.48044 8.54606 14.3073 
3 1 10.1168 9.8096 13.4947 
4 1 10.6882 11.8742 13.3067 
5 1 9.86204 12.3284 12.9594 
6 1 11.3835 11.841 12.5919 
ITEM: TIMESTEP
78
ITEM: NUMBER OF ATOMS
6
ITEM: BOX BOUNDS pp pp pp
0 18.6206
0 18.6206
0 18.6206
ITEM: ATOMS id type xs ys zs
1 1 9.94506 8.82903 13.4592 
2 1 9.46397 8.53697 14.2952 
3 1 10.0992 9.80837 13.4941 
4 1 10.6892 11.8784 13.3072 
5 1 9.85295 12.3217 12.9704 
6 1 11.3798 11.8641 12.5873 
ITEM: TIMESTEP
79
ITEM: NUMBER OF ATOMS
6
ITEM: BOX BOUNDS pp pp pp
0 18.6206
0 18.6206
0 18.6206
ITEM: ATOMS id type xs ys zs
1 1 9.94699 8.82461 13.459 
2 1 9.44787 8.52756 14.2827 
3 1 10.0825 9.80673 13.4935 
4 1 10.6901 11.8824 13.3078 
5 1 9.84433 12.3154 12.9813 
6 1 11.3759 11.8874 12.5832 
ITEM: TIMESTEP
80
ITEM: NUMBER OF ATOMS
6
ITEM: BOX BOUNDS pp pp pp
0 18.6206
0 18.6206
0 18.6206
ITEM: ATOMS id type xs ys zs
1 1 9.94888 8.8203 13.4589 
2 1 9.43214 8.51792 14.2697 
3 1 10.0669 9.80468 13.4931 
4 1 10.691 11.8864 13.3083 
5 1 9.83622 12.3093 12.9923 
6 1 11.3718 11.9108 12.5794 
ITEM: TIMESTEP
81
ITEM: NUMBER OF ATOMS
6
ITEM: BOX BOUNDS pp pp pp
0 18.6206
0 18.6206
0 18.6206
ITEM: ATOMS id type xs ys zs
1 1 9.95071 8.81608 13.4589 
2 1 9.41681 8.50811 14.2562 
3 1 10.0525 9.80228 13.4928 
4 1 10.6918 11.8903 13.3087 
5 1 9.82859 12.3037 13.0032 
6 1 11.3675 11.9341 12.5761 
ITEM: TIMESTEP
82
ITEM: NUMBER OF ATOMS
6
ITEM: BOX BOUNDS pp pp pp
0 18.6206
0 18.6206
0 18.6206
ITEM: ATOMS id type xs ys zs
1 1 9.95248 8.81194 13.4588 
2 1 9.40187 8.49822 14.2424 
3 1 10.0394 9.79955 13.4929 
4 1 10.6925 11.8941 13.3092 
5 1 9.82147 12.2985 13.014 
6 1 11.3631 11.9574 12.5732 
ITEM: TIMESTEP
83
ITEM: NUMBER OF ATOMS
6
ITEM: BOX BOUNDS pp pp pp
0 18.6206
0 18.6206
0 18.6206
ITEM: ATOMS id type xs ys zs
1 1 9.95419 8.80787 13.4587 
2 1 9.38731 8.48833 14.2283 
3 1 10.0278 9.79655 13.4934 
4 1 10.6932 11.8978 13.3095 
5 1 9.81482 12.2938 13.0249 
6 1 11.3585 11.9806 12.5708 
ITEM: TIMESTEP
84
ITEM: NUMBER OF ATOMS
6
ITEM: BOX BOUNDS pp pp pp
0 18.6206
0 18.6206
0 18.6206
ITEM: ATOMS id type xs ys zs
1 1 9.95584 8.80387 13.4587 
2 1 9.37314 8.47853 14.2139 
3 1 10.0176 9.79332 13.4943 
4 1 10.6937 11.9014 13.3099 
5 1 9.80865 12.2897 13.0357 
6 1 11.3538 12.0035 12.5688 
ITEM: TIMESTEP
85
ITEM: NUMBER OF ATOMS
6
ITEM: BOX BOUNDS pp pp pp
0 18.6206
0 18.6206
0 18.6206
ITEM: ATOMS id type xs ys zs
1 1 9.95743 8.79992 13.4586 
2 1 9.35934 8.4689 14.1992 
3 1 10.009 9.7899 13.4958 
4 1 10.6942 11.905 13.3102 
5 1 9.80293 12.2863 13.0464 
6 1 11.3489 12.0263 12.5673 
ITEM: TIMESTEP
86
ITEM: NUMBER OF ATOMS
6
ITEM: BOX BOUNDS pp pp pp
0 18.6206
0 18.6206
0 18.6206
ITEM: ATOMS id type xs ys zs
1 1 9.95896 8.79601 13.4585 
2 1 9.34589 8.45953 14.1842 
3 1 10.0019 9.78632 13.4978 
4 1 10.6946 11.9085 13.3105 
5 1 9.79767 12.2835 13.0571 
6 1 11.344 12.0487 12.5662 
ITEM: TIMESTEP
87
ITEM: NUMBER OF ATOMS
6
ITEM: BOX BOUNDS pp pp pp
0 18.6206
0 18.6206
0 18.6206
ITEM: ATOMS id type xs ys zs
1 1 9.96043 8.79211 13.4584 
2 1 9.33282 8.45069 14.1692 
3 1 9.99653 9.78258 13.5004 
4 1 10.6949 11.9119 13.3108 
5 1 9.79285 12.2815 13.0678 
6 1 11.339 12.0706 12.5656 
ITEM: TIMESTEP
88
ITEM: NUMBER OF ATOMS
6
ITEM: BOX BOUNDS pp pp pp
0 18.6206
0 18.6206
0 18.6206
ITEM: ATOMS id type xs ys zs
1 1 9.96185 8.78822 13.4583 
2 1 9.32008 8.44244 14.1542 
3 1 9.99287 9.77873 13.5034 
4 1 10.6951 11.9153 13.311 
5 1 9.78846 12.2802 13.0784 
6 1 11.334 12.0922 12.5655 
ITEM: TIMESTEP
89
ITEM: NUMBER OF ATOMS
6
ITEM: BOX BOUNDS pp pp pp
0 18.6206
0 18.6206
0 18.6206
ITEM: ATOMS id type xs ys zs
1 1 9.96321 8.78433 13.4581 
2 1 9.30765 8.43485 14.1391 
3 1 9.99088 9.77476 13.5069 
4 1 10.6953 11.9186 13.3112 
5 1 9.78448 12.2798 13.089 
6 1 11.3291 12.1132 12.5658 
ITEM: TIMESTEP
90
ITEM: NUMBER OF ATOMS
6
ITEM: BOX BOUNDS pp pp pp
0 18.6206
0 18.6206
0 18.6206
ITEM: ATOMS id type xs ys zs
1 1 9.96452 8.78044 13.4579 
2 1 9.29551 8.42798 14.1241 
3 1 9.99052 9.77069 13.511 
4 1 10.6953 11.9218 13.3114 
5 1 9.78089 12.2802 13.0996 
6 1 11.3241 12.1336 12.5665 
ITEM: TIMESTEP
91
ITEM: NUMBER OF ATOMS
6
ITEM: BOX BOUNDS pp pp pp
0 18.6206
0 18.6206
0 18.6206
ITEM: ATOMS id type xs ys zs
1 1 9.96579 8.77653 13.4576 
2 1 9.28363 8.42188 14.1092 
3 1 9.99175 9.76651 13.5156 
4 1 10.6952 11.9251 13.3116 
5 1 9.77768 12.2814 13.1102 
6 1 11.3193 12.1535 12.5675 
ITEM: TIMESTEP
92
ITEM: NUMBER OF ATOMS
6
ITEM: BOX BOUNDS pp pp pp
0 18.6206
0 18.6206
0 18.6206
ITEM: ATOMS id type xs ys zs
1 1 9.96702 8.77261 13.4573 
2 1 9.27199 8.41661 14.0944 
3 1 9.9945 9.76222 13.5207 
4 1 10.695 11.9282 13.3118 
5 1 9.77483 12.2835 13.1207 
6 1 11.3145 12.1728 12.569 
ITEM: TIMESTEP
93
ITEM: NUMBER OF ATOMS
6
ITEM: BOX BOUNDS pp pp pp
0 18.6206
0 18.6206
0 18.6206
ITEM: ATOMS id type xs ys zs
1 1 9.96821 8.76868 13.4569 
2 1 9.26057 8.41218 14.0797 
3 1 9.99872 9.7578 13.5263 
4 1 10.6947 11.9314 13.3119 
5 1 9.77234 12.2864 13.1313 
6 1 11.3099 12.1914 12.5709 
ITEM: TIMESTEP
94
ITEM: NUMBER OF ATOMS
6
ITEM: BOX BOUNDS pp pp pp
0 18.6206
0 18.6206
0 18.6206
ITEM: ATOMS id type xs ys zs
1 1 9.96937 8.76474 13.4565 
2 1 9.24937 8.40865 14.0652 
3 1 10.0043 9.75324 13.5324 
4 1 10.6943 11.9345 13.312 
5 1 9.77019 12.2901 13.1419 
6 1 11.3055 12.2094 12.573 
ITEM: TIMESTEP
95
ITEM: NUMBER OF ATOMS
6
ITEM: BOX BOUNDS pp pp pp
0 18.6206
0 18.6206
0 18.6206
ITEM: ATOMS id type xs ys zs
1 1 9.97051 8.76078 13.4561 
2 1 9.23836 8.40603 14.0509 
3 1 10.0113 9.7485 13.5388 
4 1 10.6938 11.9375 13.3122 
5 1 9.76837 12.2946 13.1525 
6 1 11.3013 12.2267 12.5755 
ITEM: TIMESTEP
96
ITEM: NUMBER OF ATOMS
6
ITEM: BOX BOUNDS pp pp pp
0 18.6206
0 18.6206
0 18.6206
ITEM: ATOMS id type xs ys zs
1 1 9.97163 8.75681 13.4556 
2 1 9.22756 8.40435 14.0368 
3 1 10.0194 9.74358 13.5457 
4 1 10.6932 11.9405 13.3123 
5 1 9.76688 12.2998 13.1631 
6 1 11.2973 12.2434 12.5783 
ITEM: TIMESTEP
97
ITEM: NUMBER OF ATOMS
6
ITEM: BOX BOUNDS pp pp pp
0 18.6206
0 18.6206
0 18.6206
ITEM: ATOMS id type xs ys zs
1 1 9.97274 8.75284 13.455 
2 1 9.21695 8.40363 14.023 
3 1 10.0287 9.73844 13.5528 
4 1 10.6925 11.9435 13.3124 
5 1 9.7657 12.3058 13.1738 
6 1 11.2935 12.2593 12.5814 
ITEM: TIMESTEP
98
ITEM: NUMBER OF ATOMS
6
ITEM: BOX BOUNDS pp pp pp
0 18.6206
0 18.6206
0 18.6206
ITEM: ATOMS id type xs ys zs
1 1 9.97383 8.74885 13.4545 
2 1 9.20655 8.40386 14.0094 
3 1 10.0391 9.73307 13.5601 
4 1 10.6917 11.9464 13.3125 
5 1 9.76483 12.3124 13.1845 
6 1 11.29 12.2746 12.5848 
ITEM: TIMESTEP
99
ITEM: NUMBER OF ATOMS
6
ITEM: BOX BOUNDS pp pp pp
0 18.6206
0 18.6206
0 18.6206
ITEM: ATOMS id type xs ys zs
1 1 9.97491 8.74486 13.4538 
2 1 9.19635 8.40505 13.9961 
3 1 10.0503 9.72746 13.5674 
4 1 10.6908 11.9493 13.3126 
5 1 9.76425 12.3197 13.1952 
6 1 11.2868 12.2892 12.5883 
ITEM: TIMESTEP
100
ITEM: NUMBER OF ATOMS
6
ITEM: BOX BOUNDS pp pp pp
0 18.6206
0 18.6206
0 18.6206
ITEM: ATOMS id type xs ys zs