ITEM: TIMESTEP
0
ITEM: NUMBER OF ATOMS
6
ITEM: BOX BOUNDS pp pp pp
0 18.6206
0 18.6206
0 18.6206
ITEM: ATOMS id type xs ys zs
1 1 9.8 9.05 13.59 
2 1 10.34 8.76 14.39 
3 1 10.1 9.95 13.3 
4 1 10.72 11.66 13.18 
5 1 10.55 12.49 12.64 
6 1 11.62 11.29 12.96 
ITEM: TIMESTEP
1
ITEM: NUMBER OF ATOMS
6
ITEM: BOX BOUNDS pp pp pp
0 18.6206
0 18.6206
0 18.6206
ITEM: ATOMS id type xs ys zs
1 1 9.8 9.05 13.59 
2 1 10.34 8.76 14.39 
3 1 10.1 9.95 13.3 
4 1 10.72 11.66 13.18 
5 1 10.55 12.49 12.64 
6 1 11.62 11.29 12.96 
