ITEM: TIMESTEP
0
ITEM: NUMBER OF ATOMS
2
ITEM: BOX BOUNDS pp pp pp
0.0000000000000000e+00 1.8620600000000000e+01
0.0000000000000000e+00 1.8620600000000000e+01
0.0000000000000000e+00 1.8620600000000000e+01
ITEM: ATOMS id type xs ys zs
1 1 0.528823 0.487854 0.731369
2 1 0.5779 0.627571 0.705535
ITEM: TIMESTEP
1
ITEM: NUMBER OF ATOMS
2
ITEM: BOX BOUNDS pp pp pp
0.0000000000000000e+00 1.8620600000000000e+01
0.0000000000000000e+00 1.8620600000000000e+01
0.0000000000000000e+00 1.8620600000000000e+01
ITEM: ATOMS id type xs ys zs
1 1 0.528977 0.487988 0.731242
2 1 0.577746 0.627436 0.705662
ITEM: TIMESTEP
2
ITEM: NUMBER OF ATOMS
2
ITEM: BOX BOUNDS pp pp pp
0.0000000000000000e+00 1.8620600000000000e+01
0.0000000000000000e+00 1.8620600000000000e+01
0.0000000000000000e+00 1.8620600000000000e+01
ITEM: ATOMS id type xs ys zs
1 1 0.529123 0.488116 0.731118
2 1 0.577599 0.627308 0.705785
ITEM: TIMESTEP
3
ITEM: NUMBER OF ATOMS
2
ITEM: BOX BOUNDS pp pp pp
0.0000000000000000e+00 1.8620600000000000e+01
0.0000000000000000e+00 1.8620600000000000e+01
0.0000000000000000e+00 1.8620600000000000e+01
ITEM: ATOMS id type xs ys zs
1 1 0.529263 0.488238 0.730997
2 1 0.577459 0.627187 0.705907
ITEM: TIMESTEP
4
ITEM: NUMBER OF ATOMS
2
ITEM: BOX BOUNDS pp pp pp
0.0000000000000000e+00 1.8620600000000000e+01
0.0000000000000000e+00 1.8620600000000000e+01
0.0000000000000000e+00 1.8620600000000000e+01
ITEM: ATOMS id type xs ys zs
1 1 0.529396 0.488353 0.730879
2 1 0.577327 0.627071 0.706025
ITEM: TIMESTEP
5
ITEM: NUMBER OF ATOMS
2
ITEM: BOX BOUNDS pp pp pp
0.0000000000000000e+00 1.8620600000000000e+01
0.0000000000000000e+00 1.8620600000000000e+01
0.0000000000000000e+00 1.8620600000000000e+01
ITEM: ATOMS id type xs ys zs
1 1 0.529521 0.488461 0.730764
2 1 0.577201 0.626963 0.70614
ITEM: TIMESTEP
6
ITEM: NUMBER OF ATOMS
2
ITEM: BOX BOUNDS pp pp pp
0.0000000000000000e+00 1.8620600000000000e+01
0.0000000000000000e+00 1.8620600000000000e+01
0.0000000000000000e+00 1.8620600000000000e+01
ITEM: ATOMS id type xs ys zs
1 1 0.52964 0.488562 0.730651
2 1 0.577083 0.626863 0.706252
ITEM: TIMESTEP
7
ITEM: NUMBER OF ATOMS
2
ITEM: BOX BOUNDS pp pp pp
0.0000000000000000e+00 1.8620600000000000e+01
0.0000000000000000e+00 1.8620600000000000e+01
0.0000000000000000e+00 1.8620600000000000e+01
ITEM: ATOMS id type xs ys zs
1 1 0.529752 0.488655 0.730542
2 1 0.576971 0.626769 0.706362
ITEM: TIMESTEP
8
ITEM: NUMBER OF ATOMS
2
ITEM: BOX BOUNDS pp pp pp
0.0000000000000000e+00 1.8620600000000000e+01
0.0000000000000000e+00 1.8620600000000000e+01
0.0000000000000000e+00 1.8620600000000000e+01
ITEM: ATOMS id type xs ys zs
1 1 0.529857 0.488741 0.730435
2 1 0.576866 0.626683 0.706469
ITEM: TIMESTEP
9
ITEM: NUMBER OF ATOMS
2
ITEM: BOX BOUNDS pp pp pp
0.0000000000000000e+00 1.8620600000000000e+01
0.0000000000000000e+00 1.8620600000000000e+01
0.0000000000000000e+00 1.8620600000000000e+01
ITEM: ATOMS id type xs ys zs
1 1 0.529956 0.488819 0.730331
2 1 0.576767 0.626605 0.706573
ITEM: TIMESTEP
10
ITEM: NUMBER OF ATOMS
2
ITEM: BOX BOUNDS pp pp pp
0.0000000000000000e+00 1.8620600000000000e+01
0.0000000000000000e+00 1.8620600000000000e+01
0.0000000000000000e+00 1.8620600000000000e+01
ITEM: ATOMS id type xs ys zs
1 1 0.530049 0.488888 0.730229
2 1 0.576674 0.626536 0.706675
ITEM: TIMESTEP
11
ITEM: NUMBER OF ATOMS
2
ITEM: BOX BOUNDS pp pp pp
0.0000000000000000e+00 1.8620600000000000e+01
0.0000000000000000e+00 1.8620600000000000e+01
0.0000000000000000e+00 1.8620600000000000e+01
ITEM: ATOMS id type xs ys zs
1 1 0.530137 0.488949 0.730129
2 1 0.576586 0.626475 0.706775
ITEM: TIMESTEP
12
ITEM: NUMBER OF ATOMS
2
ITEM: BOX BOUNDS pp pp pp
0.0000000000000000e+00 1.8620600000000000e+01
0.0000000000000000e+00 1.8620600000000000e+01
0.0000000000000000e+00 1.8620600000000000e+01
ITEM: ATOMS id type xs ys zs
1 1 0.530219 0.489001 0.730031
2 1 0.576503 0.626423 0.706872
ITEM: TIMESTEP
13
ITEM: NUMBER OF ATOMS
2
ITEM: BOX BOUNDS pp pp pp
0.0000000000000000e+00 1.8620600000000000e+01
0.0000000000000000e+00 1.8620600000000000e+01
0.0000000000000000e+00 1.8620600000000000e+01
ITEM: ATOMS id type xs ys zs
1 1 0.530297 0.489044 0.729936
2 1 0.576425 0.626381 0.706968
ITEM: TIMESTEP
14
ITEM: NUMBER OF ATOMS
2
ITEM: BOX BOUNDS pp pp pp
0.0000000000000000e+00 1.8620600000000000e+01
0.0000000000000000e+00 1.8620600000000000e+01
0.0000000000000000e+00 1.8620600000000000e+01
ITEM: ATOMS id type xs ys zs
1 1 0.530371 0.489077 0.729842
2 1 0.576352 0.626347 0.707062
ITEM: TIMESTEP
15
ITEM: NUMBER OF ATOMS
2
ITEM: BOX BOUNDS pp pp pp
0.0000000000000000e+00 1.8620600000000000e+01
0.0000000000000000e+00 1.8620600000000000e+01
0.0000000000000000e+00 1.8620600000000000e+01
ITEM: ATOMS id type xs ys zs
1 1 0.530441 0.489101 0.72975
2 1 0.576282 0.626323 0.707154
ITEM: TIMESTEP
16
ITEM: NUMBER OF ATOMS
2
ITEM: BOX BOUNDS pp pp pp
0.0000000000000000e+00 1.8620600000000000e+01
0.0000000000000000e+00 1.8620600000000000e+01
0.0000000000000000e+00 1.8620600000000000e+01
ITEM: ATOMS id type xs ys zs
1 1 0.530508 0.489115 0.72966
2 1 0.576215 0.626309 0.707244
ITEM: TIMESTEP
17
ITEM: NUMBER OF ATOMS
2
ITEM: BOX BOUNDS pp pp pp
0.0000000000000000e+00 1.8620600000000000e+01
0.0000000000000000e+00 1.8620600000000000e+01
0.0000000000000000e+00 1.8620600000000000e+01
ITEM: ATOMS id type xs ys zs
1 1 0.530572 0.48912 0.729571
2 1 0.576151 0.626304 0.707333
ITEM: TIMESTEP
18
ITEM: NUMBER OF ATOMS
2
ITEM: BOX BOUNDS pp pp pp
0.0000000000000000e+00 1.8620600000000000e+01
0.0000000000000000e+00 1.8620600000000000e+01
0.0000000000000000e+00 1.8620600000000000e+01
ITEM: ATOMS id type xs ys zs
1 1 0.530634 0.489116 0.729483
2 1 0.576089 0.626308 0.707421
ITEM: TIMESTEP
19
ITEM: NUMBER OF ATOMS
2
ITEM: BOX BOUNDS pp pp pp
0.0000000000000000e+00 1.8620600000000000e+01
0.0000000000000000e+00 1.8620600000000000e+01
0.0000000000000000e+00 1.8620600000000000e+01
ITEM: ATOMS id type xs ys zs
1 1 0.530694 0.489102 0.729396
2 1 0.576029 0.626322 0.707508
ITEM: TIMESTEP
20
ITEM: NUMBER OF ATOMS
2
ITEM: BOX BOUNDS pp pp pp
0.0000000000000000e+00 1.8620600000000000e+01
0.0000000000000000e+00 1.8620600000000000e+01
0.0000000000000000e+00 1.8620600000000000e+01
ITEM: ATOMS id type xs ys zs
1 1 0.530753 0.489078 0.729311
2 1 0.57597 0.626346 0.707593
ITEM: TIMESTEP
21
ITEM: NUMBER OF ATOMS
2
ITEM: BOX BOUNDS pp pp pp
0.0000000000000000e+00 1.8620600000000000e+01
0.0000000000000000e+00 1.8620600000000000e+01
0.0000000000000000e+00 1.8620600000000000e+01
ITEM: ATOMS id type xs ys zs
1 1 0.530811 0.489044 0.729226
2 1 0.575912 0.62638 0.707677
ITEM: TIMESTEP
22
ITEM: NUMBER OF ATOMS
2
ITEM: BOX BOUNDS pp pp pp
0.0000000000000000e+00 1.8620600000000000e+01
0.0000000000000000e+00 1.8620600000000000e+01
0.0000000000000000e+00 1.8620600000000000e+01
ITEM: ATOMS id type xs ys zs
1 1 0.530868 0.489001 0.729143
2 1 0.575855 0.626424 0.707761
ITEM: TIMESTEP
23
ITEM: NUMBER OF ATOMS
2
ITEM: BOX BOUNDS pp pp pp
0.0000000000000000e+00 1.8620600000000000e+01
0.0000000000000000e+00 1.8620600000000000e+01
0.0000000000000000e+00 1.8620600000000000e+01
ITEM: ATOMS id type xs ys zs
1 1 0.530925 0.488945 0.72906
2 1 0.575798 0.626479 0.707843
ITEM: TIMESTEP
24
ITEM: NUMBER OF ATOMS
2
ITEM: BOX BOUNDS pp pp pp
0.0000000000000000e+00 1.8620600000000000e+01
0.0000000000000000e+00 1.8620600000000000e+01
0.0000000000000000e+00 1.8620600000000000e+01
ITEM: ATOMS id type xs ys zs
1 1 0.530982 0.488879 0.728979
2 1 0.575741 0.626546 0.707925
ITEM: TIMESTEP
25
ITEM: NUMBER OF ATOMS
2
ITEM: BOX BOUNDS pp pp pp
0.0000000000000000e+00 1.8620600000000000e+01
0.0000000000000000e+00 1.8620600000000000e+01
0.0000000000000000e+00 1.8620600000000000e+01
ITEM: ATOMS id type xs ys zs
1 1 0.531039 0.4888 0.728898
2 1 0.575684 0.626624 0.708006
ITEM: TIMESTEP
26
ITEM: NUMBER OF ATOMS
2
ITEM: BOX BOUNDS pp pp pp
0.0000000000000000e+00 1.8620600000000000e+01
0.0000000000000000e+00 1.8620600000000000e+01
0.0000000000000000e+00 1.8620600000000000e+01
ITEM: ATOMS id type xs ys zs
1 1 0.531096 0.48871 0.728817
2 1 0.575626 0.626714 0.708086
ITEM: TIMESTEP
27
ITEM: NUMBER OF ATOMS
2
ITEM: BOX BOUNDS pp pp pp
0.0000000000000000e+00 1.8620600000000000e+01
0.0000000000000000e+00 1.8620600000000000e+01
0.0000000000000000e+00 1.8620600000000000e+01
ITEM: ATOMS id type xs ys zs
1 1 0.531155 0.488608 0.728738
2 1 0.575568 0.626817 0.708166
ITEM: TIMESTEP
28
ITEM: NUMBER OF ATOMS
2
ITEM: BOX BOUNDS pp pp pp
0.0000000000000000e+00 1.8620600000000000e+01
0.0000000000000000e+00 1.8620600000000000e+01
0.0000000000000000e+00 1.8620600000000000e+01
ITEM: ATOMS id type xs ys zs
1 1 0.531214 0.488494 0.728658
2 1 0.575509 0.626931 0.708245
ITEM: TIMESTEP
29
ITEM: NUMBER OF ATOMS
2
ITEM: BOX BOUNDS pp pp pp
0.0000000000000000e+00 1.8620600000000000e+01
0.0000000000000000e+00 1.8620600000000000e+01
0.0000000000000000e+00 1.8620600000000000e+01
ITEM: ATOMS id type xs ys zs
1 1 0.531274 0.488368 0.72858
2 1 0.575449 0.627056 0.708324
ITEM: TIMESTEP
30
ITEM: NUMBER OF ATOMS
2
ITEM: BOX BOUNDS pp pp pp
0.0000000000000000e+00 1.8620600000000000e+01
0.0000000000000000e+00 1.8620600000000000e+01
0.0000000000000000e+00 1.8620600000000000e+01
ITEM: ATOMS id type xs ys zs
1 1 0.531335 0.488231 0.728502
2 1 0.575388 0.627193 0.708402
ITEM: TIMESTEP
31
ITEM: NUMBER OF ATOMS
2
ITEM: BOX BOUNDS pp pp pp
0.0000000000000000e+00 1.8620600000000000e+01
0.0000000000000000e+00 1.8620600000000000e+01
0.0000000000000000e+00 1.8620600000000000e+01
ITEM: ATOMS id type xs ys zs
1 1 0.531398 0.488083 0.728424
2 1 0.575325 0.627341 0.70848
ITEM: TIMESTEP
32
ITEM: NUMBER OF ATOMS
2
ITEM: BOX BOUNDS pp pp pp
0.0000000000000000e+00 1.8620600000000000e+01
0.0000000000000000e+00 1.8620600000000000e+01
0.0000000000000000e+00 1.8620600000000000e+01
ITEM: ATOMS id type xs ys zs
1 1 0.531462 0.487924 0.728346
2 1 0.575261 0.6275 0.708557
ITEM: TIMESTEP
33
ITEM: NUMBER OF ATOMS
2
ITEM: BOX BOUNDS pp pp pp
0.0000000000000000e+00 1.8620600000000000e+01
0.0000000000000000e+00 1.8620600000000000e+01
0.0000000000000000e+00 1.8620600000000000e+01
ITEM: ATOMS id type xs ys zs
1 1 0.531527 0.487755 0.728269
2 1 0.575196 0.62767 0.708634
ITEM: TIMESTEP
34
ITEM: NUMBER OF ATOMS
2
ITEM: BOX BOUNDS pp pp pp
0.0000000000000000e+00 1.8620600000000000e+01
0.0000000000000000e+00 1.8620600000000000e+01
0.0000000000000000e+00 1.8620600000000000e+01
ITEM: ATOMS id type xs ys zs
1 1 0.531594 0.487575 0.728193
2 1 0.575129 0.62785 0.708711
ITEM: TIMESTEP
35
ITEM: NUMBER OF ATOMS
2
ITEM: BOX BOUNDS pp pp pp
0.0000000000000000e+00 1.8620600000000000e+01
0.0000000000000000e+00 1.8620600000000000e+01
0.0000000000000000e+00 1.8620600000000000e+01
ITEM: ATOMS id type xs ys zs
1 1 0.531662 0.487385 0.728116
2 1 0.57506 0.628039 0.708787
ITEM: TIMESTEP
36
ITEM: NUMBER OF ATOMS
2
ITEM: BOX BOUNDS pp pp pp
0.0000000000000000e+00 1.8620600000000000e+01
0.0000000000000000e+00 1.8620600000000000e+01
0.0000000000000000e+00 1.8620600000000000e+01
ITEM: ATOMS id type xs ys zs
1 1 0.531732 0.487186 0.72804
2 1 0.574991 0.628239 0.708864
ITEM: TIMESTEP
37
ITEM: NUMBER OF ATOMS
2
ITEM: BOX BOUNDS pp pp pp
0.0000000000000000e+00 1.8620600000000000e+01
0.0000000000000000e+00 1.8620600000000000e+01
0.0000000000000000e+00 1.8620600000000000e+01
ITEM: ATOMS id type xs ys zs
1 1 0.531803 0.486978 0.727964
2 1 0.574919 0.628447 0.708939
ITEM: TIMESTEP
38
ITEM: NUMBER OF ATOMS
2
ITEM: BOX BOUNDS pp pp pp
0.0000000000000000e+00 1.8620600000000000e+01
0.0000000000000000e+00 1.8620600000000000e+01
0.0000000000000000e+00 1.8620600000000000e+01
ITEM: ATOMS id type xs ys zs
1 1 0.531875 0.486763 0.727888
2 1 0.574847 0.628662 0.709015
ITEM: TIMESTEP
39
ITEM: NUMBER OF ATOMS
2
ITEM: BOX BOUNDS pp pp pp
0.0000000000000000e+00 1.8620600000000000e+01
0.0000000000000000e+00 1.8620600000000000e+01
0.0000000000000000e+00 1.8620600000000000e+01
ITEM: ATOMS id type xs ys zs
1 1 0.531948 0.486541 0.727813
2 1 0.574774 0.628883 0.709091
ITEM: TIMESTEP
40
ITEM: NUMBER OF ATOMS
2
ITEM: BOX BOUNDS pp pp pp
0.0000000000000000e+00 1.8620600000000000e+01
0.0000000000000000e+00 1.8620600000000000e+01
0.0000000000000000e+00 1.8620600000000000e+01
ITEM: ATOMS id type xs ys zs
1 1 0.532022 0.486313 0.727737
2 1 0.574701 0.629111 0.709167
ITEM: TIMESTEP
41
ITEM: NUMBER OF ATOMS
2
ITEM: BOX BOUNDS pp pp pp
0.0000000000000000e+00 1.8620600000000000e+01
0.0000000000000000e+00 1.8620600000000000e+01
0.0000000000000000e+00 1.8620600000000000e+01
ITEM: ATOMS id type xs ys zs
1 1 0.532096 0.48608 0.727661
2 1 0.574627 0.629344 0.709243
ITEM: TIMESTEP
42
ITEM: NUMBER OF ATOMS
2
ITEM: BOX BOUNDS pp pp pp
0.0000000000000000e+00 1.8620600000000000e+01
0.0000000000000000e+00 1.8620600000000000e+01
0.0000000000000000e+00 1.8620600000000000e+01
ITEM: ATOMS id type xs ys zs
1 1 0.532171 0.485842 0.727585
2 1 0.574552 0.629582 0.709318
ITEM: TIMESTEP
43
ITEM: NUMBER OF ATOMS
2
ITEM: BOX BOUNDS pp pp pp
0.0000000000000000e+00 1.8620600000000000e+01
0.0000000000000000e+00 1.8620600000000000e+01
0.0000000000000000e+00 1.8620600000000000e+01
ITEM: ATOMS id type xs ys zs
1 1 0.532246 0.485599 0.72751
2 1 0.574477 0.629826 0.709394
ITEM: TIMESTEP
44
ITEM: NUMBER OF ATOMS
2
ITEM: BOX BOUNDS pp pp pp
0.0000000000000000e+00 1.8620600000000000e+01
0.0000000000000000e+00 1.8620600000000000e+01
0.0000000000000000e+00 1.8620600000000000e+01
ITEM: ATOMS id type xs ys zs
1 1 0.532322 0.48535 0.727434
2 1 0.574401 0.630074 0.709469
ITEM: TIMESTEP
45
ITEM: NUMBER OF ATOMS
2
ITEM: BOX BOUNDS pp pp pp
0.0000000000000000e+00 1.8620600000000000e+01
0.0000000000000000e+00 1.8620600000000000e+01
0.0000000000000000e+00 1.8620600000000000e+01
ITEM: ATOMS id type xs ys zs
1 1 0.532398 0.485098 0.727359
2 1 0.574325 0.630326 0.709544
ITEM: TIMESTEP
46
ITEM: NUMBER OF ATOMS
2
ITEM: BOX BOUNDS pp pp pp
0.0000000000000000e+00 1.8620600000000000e+01
0.0000000000000000e+00 1.8620600000000000e+01
0.0000000000000000e+00 1.8620600000000000e+01
ITEM: ATOMS id type xs ys zs
1 1 0.532474 0.484842 0.727284
2 1 0.574249 0.630583 0.709619
ITEM: TIMESTEP
47
ITEM: NUMBER OF ATOMS
2
ITEM: BOX BOUNDS pp pp pp
0.0000000000000000e+00 1.8620600000000000e+01
0.0000000000000000e+00 1.8620600000000000e+01
0.0000000000000000e+00 1.8620600000000000e+01
ITEM: ATOMS id type xs ys zs
1 1 0.532549 0.484582 0.72721
2 1 0.574174 0.630843 0.709694
ITEM: TIMESTEP
48
ITEM: NUMBER OF ATOMS
2
ITEM: BOX BOUNDS pp pp pp
0.0000000000000000e+00 1.8620600000000000e+01
0.0000000000000000e+00 1.8620600000000000e+01
0.0000000000000000e+00 1.8620600000000000e+01
ITEM: ATOMS id type xs ys zs
1 1 0.532622 0.484319 0.727136
2 1 0.5741 0.631105 0.709768
ITEM: TIMESTEP
49
ITEM: NUMBER OF ATOMS
2
ITEM: BOX BOUNDS pp pp pp
0.0000000000000000e+00 1.8620600000000000e+01
0.0000000000000000e+00 1.8620600000000000e+01
0.0000000000000000e+00 1.8620600000000000e+01
ITEM: ATOMS id type xs ys zs
1 1 0.532694 0.484054 0.727063
2 1 0.574029 0.631371 0.709841
ITEM: TIMESTEP
50
ITEM: NUMBER OF ATOMS
2
ITEM: BOX BOUNDS pp pp pp
0.0000000000000000e+00 1.8620600000000000e+01
0.0000000000000000e+00 1.8620600000000000e+01
0.0000000000000000e+00 1.8620600000000000e+01
ITEM: ATOMS id type xs ys zs
1 1 0.532763 0.483786 0.72699
2 1 0.57396 0.631638 0.709913
ITEM: TIMESTEP
51
ITEM: NUMBER OF ATOMS
2
ITEM: BOX BOUNDS pp pp pp
0.0000000000000000e+00 1.8620600000000000e+01
0.0000000000000000e+00 1.8620600000000000e+01
0.0000000000000000e+00 1.8620600000000000e+01
ITEM: ATOMS id type xs ys zs
1 1 0.532828 0.483518 0.726919
2 1 0.573895 0.631907 0.709985
ITEM: TIMESTEP
52
ITEM: NUMBER OF ATOMS
2
ITEM: BOX BOUNDS pp pp pp
0.0000000000000000e+00 1.8620600000000000e+01
0.0000000000000000e+00 1.8620600000000000e+01
0.0000000000000000e+00 1.8620600000000000e+01
ITEM: ATOMS id type xs ys zs
1 1 0.532889 0.483247 0.726848
2 1 0.573834 0.632177 0.710055
ITEM: TIMESTEP
53
ITEM: NUMBER OF ATOMS
2
ITEM: BOX BOUNDS pp pp pp
0.0000000000000000e+00 1.8620600000000000e+01
0.0000000000000000e+00 1.8620600000000000e+01
0.0000000000000000e+00 1.8620600000000000e+01
ITEM: ATOMS id type xs ys zs
1 1 0.532945 0.482976 0.726779
2 1 0.573778 0.632449 0.710124
ITEM: TIMESTEP
54
ITEM: NUMBER OF ATOMS
2
ITEM: BOX BOUNDS pp pp pp
0.0000000000000000e+00 1.8620600000000000e+01
0.0000000000000000e+00 1.8620600000000000e+01
0.0000000000000000e+00 1.8620600000000000e+01
ITEM: ATOMS id type xs ys zs
1 1 0.532997 0.482702 0.726712
2 1 0.573726 0.632722 0.710192
ITEM: TIMESTEP
55
ITEM: NUMBER OF ATOMS
2
ITEM: BOX BOUNDS pp pp pp
0.0000000000000000e+00 1.8620600000000000e+01
0.0000000000000000e+00 1.8620600000000000e+01
0.0000000000000000e+00 1.8620600000000000e+01
ITEM: ATOMS id type xs ys zs
1 1 0.533043 0.482427 0.726645
2 1 0.573679 0.632997 0.710259
ITEM: TIMESTEP
56
ITEM: NUMBER OF ATOMS
2
ITEM: BOX BOUNDS pp pp pp
0.0000000000000000e+00 1.8620600000000000e+01
0.0000000000000000e+00 1.8620600000000000e+01
0.0000000000000000e+00 1.8620600000000000e+01
ITEM: ATOMS id type xs ys zs
1 1 0.533085 0.482151 0.72658
2 1 0.573638 0.633273 0.710323
ITEM: TIMESTEP
57
ITEM: NUMBER OF ATOMS
2
ITEM: BOX BOUNDS pp pp pp
0.0000000000000000e+00 1.8620600000000000e+01
0.0000000000000000e+00 1.8620600000000000e+01
0.0000000000000000e+00 1.8620600000000000e+01
ITEM: ATOMS id type xs ys zs
1 1 0.533121 0.481874 0.726517
2 1 0.573602 0.633551 0.710387
ITEM: TIMESTEP
58
ITEM: NUMBER OF ATOMS
2
ITEM: BOX BOUNDS pp pp pp
0.0000000000000000e+00 1.8620600000000000e+01
0.0000000000000000e+00 1.8620600000000000e+01
0.0000000000000000e+00 1.8620600000000000e+01
ITEM: ATOMS id type xs ys zs
1 1 0.533152 0.481595 0.726455
2 1 0.57357 0.633829 0.710448
ITEM: TIMESTEP
59
ITEM: NUMBER OF ATOMS
2
ITEM: BOX BOUNDS pp pp pp
0.0000000000000000e+00 1.8620600000000000e+01
0.0000000000000000e+00 1.8620600000000000e+01
0.0000000000000000e+00 1.8620600000000000e+01
ITEM: ATOMS id type xs ys zs
1 1 0.533178 0.481316 0.726395
2 1 0.573544 0.634108 0.710509
ITEM: TIMESTEP
60
ITEM: NUMBER OF ATOMS
2
ITEM: BOX BOUNDS pp pp pp
0.0000000000000000e+00 1.8620600000000000e+01
0.0000000000000000e+00 1.8620600000000000e+01
0.0000000000000000e+00 1.8620600000000000e+01
ITEM: ATOMS id type xs ys zs
1 1 0.5332 0.481036 0.726336
2 1 0.573523 0.634388 0.710568
ITEM: TIMESTEP
61
ITEM: NUMBER OF ATOMS
2
ITEM: BOX BOUNDS pp pp pp
0.0000000000000000e+00 1.8620600000000000e+01
0.0000000000000000e+00 1.8620600000000000e+01
0.0000000000000000e+00 1.8620600000000000e+01
ITEM: ATOMS id type xs ys zs
1 1 0.533216 0.480757 0.726278
2 1 0.573506 0.634668 0.710625
ITEM: TIMESTEP
62
ITEM: NUMBER OF ATOMS
2
ITEM: BOX BOUNDS pp pp pp
0.0000000000000000e+00 1.8620600000000000e+01
0.0000000000000000e+00 1.8620600000000000e+01
0.0000000000000000e+00 1.8620600000000000e+01
ITEM: ATOMS id type xs ys zs
1 1 0.533228 0.480477 0.726222
2 1 0.573494 0.634947 0.710682
ITEM: TIMESTEP
63
ITEM: NUMBER OF ATOMS
2
ITEM: BOX BOUNDS pp pp pp
0.0000000000000000e+00 1.8620600000000000e+01
0.0000000000000000e+00 1.8620600000000000e+01
0.0000000000000000e+00 1.8620600000000000e+01
ITEM: ATOMS id type xs ys zs
1 1 0.533236 0.480198 0.726167
2 1 0.573486 0.635227 0.710737
ITEM: TIMESTEP
64
ITEM: NUMBER OF ATOMS
2
ITEM: BOX BOUNDS pp pp pp
0.0000000000000000e+00 1.8620600000000000e+01
0.0000000000000000e+00 1.8620600000000000e+01
0.0000000000000000e+00 1.8620600000000000e+01
ITEM: ATOMS id type xs ys zs
1 1 0.53324 0.479919 0.726113
2 1 0.573482 0.635505 0.710791
ITEM: TIMESTEP
65
ITEM: NUMBER OF ATOMS
2
ITEM: BOX BOUNDS pp pp pp
0.0000000000000000e+00 1.8620600000000000e+01
0.0000000000000000e+00 1.8620600000000000e+01
0.0000000000000000e+00 1.8620600000000000e+01
ITEM: ATOMS id type xs ys zs
1 1 0.533241 0.479641 0.72606
2 1 0.573482 0.635783 0.710844
ITEM: TIMESTEP
66
ITEM: NUMBER OF ATOMS
2
ITEM: BOX BOUNDS pp pp pp
0.0000000000000000e+00 1.8620600000000000e+01
0.0000000000000000e+00 1.8620600000000000e+01
0.0000000000000000e+00 1.8620600000000000e+01
ITEM: ATOMS id type xs ys zs
1 1 0.533238 0.479365 0.726008
2 1 0.573485 0.63606 0.710896
ITEM: TIMESTEP
67
ITEM: NUMBER OF ATOMS
2
ITEM: BOX BOUNDS pp pp pp
0.0000000000000000e+00 1.8620600000000000e+01
0.0000000000000000e+00 1.8620600000000000e+01
0.0000000000000000e+00 1.8620600000000000e+01
ITEM: ATOMS id type xs ys zs
1 1 0.533232 0.47909 0.725957
2 1 0.573491 0.636335 0.710947
ITEM: TIMESTEP
68
ITEM: NUMBER OF ATOMS
2
ITEM: BOX BOUNDS pp pp pp
0.0000000000000000e+00 1.8620600000000000e+01
0.0000000000000000e+00 1.8620600000000000e+01
0.0000000000000000e+00 1.8620600000000000e+01
ITEM: ATOMS id type xs ys zs
1 1 0.533224 0.478816 0.725907
2 1 0.573499 0.636608 0.710997
ITEM: TIMESTEP
69
ITEM: NUMBER OF ATOMS
2
ITEM: BOX BOUNDS pp pp pp
0.0000000000000000e+00 1.8620600000000000e+01
0.0000000000000000e+00 1.8620600000000000e+01
0.0000000000000000e+00 1.8620600000000000e+01
ITEM: ATOMS id type xs ys zs
1 1 0.533214 0.478545 0.725857
2 1 0.573509 0.636879 0.711047
ITEM: TIMESTEP
70
ITEM: NUMBER OF ATOMS
2
ITEM: BOX BOUNDS pp pp pp
0.0000000000000000e+00 1.8620600000000000e+01
0.0000000000000000e+00 1.8620600000000000e+01
0.0000000000000000e+00 1.8620600000000000e+01
ITEM: ATOMS id type xs ys zs
1 1 0.533202 0.478276 0.725808
2 1 0.573521 0.637149 0.711096
ITEM: TIMESTEP
71
ITEM: NUMBER OF ATOMS
2
ITEM: BOX BOUNDS pp pp pp
0.0000000000000000e+00 1.8620600000000000e+01
0.0000000000000000e+00 1.8620600000000000e+01
0.0000000000000000e+00 1.8620600000000000e+01
ITEM: ATOMS id type xs ys zs
1 1 0.533189 0.478009 0.725759
2 1 0.573534 0.637415 0.711145
ITEM: TIMESTEP
72
ITEM: NUMBER OF ATOMS
2
ITEM: BOX BOUNDS pp pp pp
0.0000000000000000e+00 1.8620600000000000e+01
0.0000000000000000e+00 1.8620600000000000e+01
0.0000000000000000e+00 1.8620600000000000e+01
ITEM: ATOMS id type xs ys zs
1 1 0.533175 0.477745 0.725711
2 1 0.573547 0.637679 0.711193
ITEM: TIMESTEP
73
ITEM: NUMBER OF ATOMS
2
ITEM: BOX BOUNDS pp pp pp
0.0000000000000000e+00 1.8620600000000000e+01
0.0000000000000000e+00 1.8620600000000000e+01
0.0000000000000000e+00 1.8620600000000000e+01
ITEM: ATOMS id type xs ys zs
1 1 0.533162 0.477483 0.725663
2 1 0.573561 0.637941 0.711241
ITEM: TIMESTEP
74
ITEM: NUMBER OF ATOMS
2
ITEM: BOX BOUNDS pp pp pp
0.0000000000000000e+00 1.8620600000000000e+01
0.0000000000000000e+00 1.8620600000000000e+01
0.0000000000000000e+00 1.8620600000000000e+01
ITEM: ATOMS id type xs ys zs
1 1 0.533148 0.477225 0.725615
2 1 0.573575 0.6382 0.711288
ITEM: TIMESTEP
75
ITEM: NUMBER OF ATOMS
2
ITEM: BOX BOUNDS pp pp pp
0.0000000000000000e+00 1.8620600000000000e+01
0.0000000000000000e+00 1.8620600000000000e+01
0.0000000000000000e+00 1.8620600000000000e+01
ITEM: ATOMS id type xs ys zs
1 1 0.533136 0.476969 0.725568
2 1 0.573587 0.638456 0.711336
ITEM: TIMESTEP
76
ITEM: NUMBER OF ATOMS
2
ITEM: BOX BOUNDS pp pp pp
0.0000000000000000e+00 1.8620600000000000e+01
0.0000000000000000e+00 1.8620600000000000e+01
0.0000000000000000e+00 1.8620600000000000e+01
ITEM: ATOMS id type xs ys zs
1 1 0.533124 0.476716 0.725521
2 1 0.573598 0.638708 0.711383
ITEM: TIMESTEP
77
ITEM: NUMBER OF ATOMS
2
ITEM: BOX BOUNDS pp pp pp
0.0000000000000000e+00 1.8620600000000000e+01
0.0000000000000000e+00 1.8620600000000000e+01
0.0000000000000000e+00 1.8620600000000000e+01
ITEM: ATOMS id type xs ys zs
1 1 0.533115 0.476466 0.725474
2 1 0.573608 0.638958 0.711429
ITEM: TIMESTEP
78
ITEM: NUMBER OF ATOMS
2
ITEM: BOX BOUNDS pp pp pp
0.0000000000000000e+00 1.8620600000000000e+01
0.0000000000000000e+00 1.8620600000000000e+01
0.0000000000000000e+00 1.8620600000000000e+01
ITEM: ATOMS id type xs ys zs
1 1 0.533107 0.476219 0.725428
2 1 0.573616 0.639205 0.711476
ITEM: TIMESTEP
79
ITEM: NUMBER OF ATOMS
2
ITEM: BOX BOUNDS pp pp pp
0.0000000000000000e+00 1.8620600000000000e+01
0.0000000000000000e+00 1.8620600000000000e+01
0.0000000000000000e+00 1.8620600000000000e+01
ITEM: ATOMS id type xs ys zs
1 1 0.533101 0.475975 0.725382
2 1 0.573622 0.639449 0.711521
ITEM: TIMESTEP
80
ITEM: NUMBER OF ATOMS
2
ITEM: BOX BOUNDS pp pp pp
0.0000000000000000e+00 1.8620600000000000e+01
0.0000000000000000e+00 1.8620600000000000e+01
0.0000000000000000e+00 1.8620600000000000e+01
ITEM: ATOMS id type xs ys zs
1 1 0.533096 0.475734 0.725337
2 1 0.573627 0.63969 0.711567
ITEM: TIMESTEP
81
ITEM: NUMBER OF ATOMS
2
ITEM: BOX BOUNDS pp pp pp
0.0000000000000000e+00 1.8620600000000000e+01
0.0000000000000000e+00 1.8620600000000000e+01
0.0000000000000000e+00 1.8620600000000000e+01
ITEM: ATOMS id type xs ys zs
1 1 0.533094 0.475496 0.725292
2 1 0.573629 0.639928 0.711612
ITEM: TIMESTEP
82
ITEM: NUMBER OF ATOMS
2
ITEM: BOX BOUNDS pp pp pp
0.0000000000000000e+00 1.8620600000000000e+01
0.0000000000000000e+00 1.8620600000000000e+01
0.0000000000000000e+00 1.8620600000000000e+01
ITEM: ATOMS id type xs ys zs
1 1 0.533094 0.475261 0.725248
2 1 0.573629 0.640163 0.711656
ITEM: TIMESTEP
83
ITEM: NUMBER OF ATOMS
2
ITEM: BOX BOUNDS pp pp pp
0.0000000000000000e+00 1.8620600000000000e+01
0.0000000000000000e+00 1.8620600000000000e+01
0.0000000000000000e+00 1.8620600000000000e+01
ITEM: ATOMS id type xs ys zs
1 1 0.533097 0.475028 0.725204
2 1 0.573626 0.640396 0.7117
ITEM: TIMESTEP
84
ITEM: NUMBER OF ATOMS
2
ITEM: BOX BOUNDS pp pp pp
0.0000000000000000e+00 1.8620600000000000e+01
0.0000000000000000e+00 1.8620600000000000e+01
0.0000000000000000e+00 1.8620600000000000e+01
ITEM: ATOMS id type xs ys zs
1 1 0.533103 0.474798 0.72516
2 1 0.57362 0.640626 0.711743
ITEM: TIMESTEP
85
ITEM: NUMBER OF ATOMS
2
ITEM: BOX BOUNDS pp pp pp
0.0000000000000000e+00 1.8620600000000000e+01
0.0000000000000000e+00 1.8620600000000000e+01
0.0000000000000000e+00 1.8620600000000000e+01
ITEM: ATOMS id type xs ys zs
1 1 0.533111 0.47457 0.725117
2 1 0.573612 0.640854 0.711787
ITEM: TIMESTEP
86
ITEM: NUMBER OF ATOMS
2
ITEM: BOX BOUNDS pp pp pp
0.0000000000000000e+00 1.8620600000000000e+01
0.0000000000000000e+00 1.8620600000000000e+01
0.0000000000000000e+00 1.8620600000000000e+01
ITEM: ATOMS id type xs ys zs
1 1 0.533123 0.474345 0.725074
2 1 0.5736 0.641079 0.711829
ITEM: TIMESTEP
87
ITEM: NUMBER OF ATOMS
2
ITEM: BOX BOUNDS pp pp pp
0.0000000000000000e+00 1.8620600000000000e+01
0.0000000000000000e+00 1.8620600000000000e+01
0.0000000000000000e+00 1.8620600000000000e+01
ITEM: ATOMS id type xs ys zs
1 1 0.533137 0.474121 0.725031
2 1 0.573585 0.641303 0.711872
ITEM: TIMESTEP
88
ITEM: NUMBER OF ATOMS
2
ITEM: BOX BOUNDS pp pp pp
0.0000000000000000e+00 1.8620600000000000e+01
0.0000000000000000e+00 1.8620600000000000e+01
0.0000000000000000e+00 1.8620600000000000e+01
ITEM: ATOMS id type xs ys zs
1 1 0.533156 0.4739 0.724989
2 1 0.573567 0.641525 0.711915
ITEM: TIMESTEP
89
ITEM: NUMBER OF ATOMS
2
ITEM: BOX BOUNDS pp pp pp
0.0000000000000000e+00 1.8620600000000000e+01
0.0000000000000000e+00 1.8620600000000000e+01
0.0000000000000000e+00 1.8620600000000000e+01
ITEM: ATOMS id type xs ys zs
1 1 0.533177 0.473679 0.724946
2 1 0.573546 0.641745 0.711958
ITEM: TIMESTEP
90
ITEM: NUMBER OF ATOMS
2
ITEM: BOX BOUNDS pp pp pp
0.0000000000000000e+00 1.8620600000000000e+01
0.0000000000000000e+00 1.8620600000000000e+01
0.0000000000000000e+00 1.8620600000000000e+01
ITEM: ATOMS id type xs ys zs
1 1 0.533202 0.473461 0.724902
2 1 0.573521 0.641964 0.712001
ITEM: TIMESTEP
91
ITEM: NUMBER OF ATOMS
2
ITEM: BOX BOUNDS pp pp pp
0.0000000000000000e+00 1.8620600000000000e+01
0.0000000000000000e+00 1.8620600000000000e+01
0.0000000000000000e+00 1.8620600000000000e+01
ITEM: ATOMS id type xs ys zs
1 1 0.533231 0.473244 0.724859
2 1 0.573492 0.642181 0.712045
ITEM: TIMESTEP
92
ITEM: NUMBER OF ATOMS
2
ITEM: BOX BOUNDS pp pp pp
0.0000000000000000e+00 1.8620600000000000e+01
0.0000000000000000e+00 1.8620600000000000e+01
0.0000000000000000e+00 1.8620600000000000e+01
ITEM: ATOMS id type xs ys zs
1 1 0.533262 0.473028 0.724815
2 1 0.57346 0.642396 0.712089
ITEM: TIMESTEP
93
ITEM: NUMBER OF ATOMS
2
ITEM: BOX BOUNDS pp pp pp
0.0000000000000000e+00 1.8620600000000000e+01
0.0000000000000000e+00 1.8620600000000000e+01
0.0000000000000000e+00 1.8620600000000000e+01
ITEM: ATOMS id type xs ys zs
1 1 0.533298 0.472814 0.724771
2 1 0.573425 0.64261 0.712133
ITEM: TIMESTEP
94
ITEM: NUMBER OF ATOMS
2
ITEM: BOX BOUNDS pp pp pp
0.0000000000000000e+00 1.8620600000000000e+01
0.0000000000000000e+00 1.8620600000000000e+01
0.0000000000000000e+00 1.8620600000000000e+01
ITEM: ATOMS id type xs ys zs
1 1 0.533337 0.472601 0.724726
2 1 0.573386 0.642823 0.712177
ITEM: TIMESTEP
95
ITEM: NUMBER OF ATOMS
2
ITEM: BOX BOUNDS pp pp pp
0.0000000000000000e+00 1.8620600000000000e+01
0.0000000000000000e+00 1.8620600000000000e+01
0.0000000000000000e+00 1.8620600000000000e+01
ITEM: ATOMS id type xs ys zs
1 1 0.533379 0.472391 0.724681
2 1 0.573344 0.643034 0.712222
ITEM: TIMESTEP
96
ITEM: NUMBER OF ATOMS
2
ITEM: BOX BOUNDS pp pp pp
0.0000000000000000e+00 1.8620600000000000e+01
0.0000000000000000e+00 1.8620600000000000e+01
0.0000000000000000e+00 1.8620600000000000e+01
ITEM: ATOMS id type xs ys zs
1 1 0.533424 0.472182 0.724636
2 1 0.573299 0.643243 0.712268
ITEM: TIMESTEP
97
ITEM: NUMBER OF ATOMS
2
ITEM: BOX BOUNDS pp pp pp
0.0000000000000000e+00 1.8620600000000000e+01
0.0000000000000000e+00 1.8620600000000000e+01
0.0000000000000000e+00 1.8620600000000000e+01
ITEM: ATOMS id type xs ys zs
1 1 0.533473 0.471974 0.724589
2 1 0.57325 0.64345 0.712314
ITEM: TIMESTEP
98
ITEM: NUMBER OF ATOMS
2
ITEM: BOX BOUNDS pp pp pp
0.0000000000000000e+00 1.8620600000000000e+01
0.0000000000000000e+00 1.8620600000000000e+01
0.0000000000000000e+00 1.8620600000000000e+01
ITEM: ATOMS id type xs ys zs
1 1 0.533525 0.471769 0.724542
2 1 0.573198 0.643656 0.712362
ITEM: TIMESTEP
99
ITEM: NUMBER OF ATOMS
2
ITEM: BOX BOUNDS pp pp pp
0.0000000000000000e+00 1.8620600000000000e+01
0.0000000000000000e+00 1.8620600000000000e+01
0.0000000000000000e+00 1.8620600000000000e+01
ITEM: ATOMS id type xs ys zs
1 1 0.533579 0.471565 0.724494
2 1 0.573143 0.643859 0.71241
ITEM: TIMESTEP
100
ITEM: NUMBER OF ATOMS
2
ITEM: BOX BOUNDS pp pp pp
0.0000000000000000e+00 1.8620600000000000e+01
0.0000000000000000e+00 1.8620600000000000e+01
0.0000000000000000e+00 1.8620600000000000e+01
ITEM: ATOMS id type xs ys zs
1 1 0.533637 0.471363 0.724445
2 1 0.573086 0.644061 0.712458
ITEM: TIMESTEP
101
ITEM: NUMBER OF ATOMS
2