LAMMPS (21 Dec 2016)
Reading data file ...
  orthogonal box = (0 0 0) to (18.6206 18.6206 18.6206)
  1 by 1 by 1 MPI processor grid
  reading atoms ...
  2 atoms
  2 bodies
initialize water db
initialize water db finished
Neighbor list info ...
  update every 1 steps, delay 0 steps, check yes
  max neighbors/atom: 2000, page size: 100000
  master list distance cutoff = 10.7
  ghost atom cutoff = 10.7
  binsize = 5.35, bins = 4 4 4
  1 neighbor lists, perpetual/occasional/extra = 1 0 0
  (1) pair body, perpetual
      pair build: half/bin/newton
      stencil: half/bin/3d/newton
      bin: standard
Setting up Verlet run ...
  Unit style    : real
  Current step  : 0
  Time step     : 1
9.800000 9.050000 13.589995
10.340000 8.760000 14.389995
10.100000 9.950000 13.299995
10.720000 11.660003 13.180002
10.550000 12.490003 12.640002
11.620000 11.290003 12.960002
Memory usage per processor = 7.06267 Mbytes
Step Temp c_1 PotEng TotEng 
       0          300          100            0   0.89424301 
9.802931 9.052448 13.587577
10.342784 8.762708 14.387771
10.101785 9.953099 13.298418
10.717156 11.657475 13.182359
10.546626 12.487394 12.642402
11.617414 11.288091 12.962378
       1    277.25031    94.088773            0    0.8264305 
9.805871 9.054681 13.585096
10.345277 8.765729 14.385875
10.101249 9.957289 13.298477
10.714482 11.654997 13.184654
10.542355 12.484673 12.644830
11.615516 11.287475 12.964736
       2    254.70962    91.628406            0   0.75924098 
9.808818 9.056697 13.582552
10.347464 8.769047 14.384311
10.098365 9.962524 13.300170
10.711981 11.652578 13.186888
10.537189 12.481840 12.647285
11.614302 11.288163 12.967073
       3    232.66918     92.66746            0   0.69354262 
9.811775 9.058495 13.579946
10.349319 8.772638 14.383084
10.093117 9.968723 13.303482
10.709654 11.650223 13.189061
10.531139 12.478890 12.649763
11.613748 11.290150 12.969378
       4    211.41824    97.102649            0   0.63019762 
9.814744 9.060082 13.577280
10.350808 8.776464 14.382200
10.085510 9.975766 13.308379
10.707502 11.647940 13.191175
10.524220 12.475816 12.652260
11.613818 11.293412 12.971631
       5    191.21626    104.65403            0   0.56997935 
9.817729 9.061465 13.574556
10.351886 8.780479 14.381664
10.075572 9.983497 13.314801
10.705523 11.645736 13.193234
10.516457 12.472605 12.654771
11.614460 11.297910 12.973802
       6    172.29571    114.85025            0   0.51358078 
9.820735 9.062657 13.571777
10.352501 8.784621 14.381481
10.063366 9.991728 13.322664
10.703716 11.643618 13.195241
10.507881 12.469242 12.657287
11.615606 11.303582 12.975852
       7    154.85189    126.95205            0   0.46158406 
9.823765 9.063675 13.568948
10.352600 8.788819 14.381651
10.049010 10.000235 13.331840
10.702074 11.641596 13.197205
10.498538 12.465713 12.659799
11.617173 11.310346 12.977736
       8    138.83364    139.58135            0   0.41383671 
9.826815 9.064533 13.566081
10.352163 8.792980 14.382150
10.032747 10.008739 13.342100
10.700588 11.639683 13.199128
10.488505 12.462030 12.662316
11.619078 11.318113 12.979427
       9     124.1745    151.30159            0   0.37014059 
9.829878 9.065245 13.563190
10.351169 8.797010 14.382950
10.014852 10.016975 13.353204
10.699249 11.637894 13.201018
10.477865 12.458203 12.664845
11.621232 11.326778 12.980894
      10    110.95558    161.26788            0   0.33073752 
9.832949 9.065823 13.560288
10.349599 8.800819 14.384027
9.995626 10.024710 13.364912
10.698046 11.636243 13.202878
10.466701 12.454247 12.667389
11.623545 11.336228 12.982102
      11    99.228432    168.89346            0   0.29578111 
9.836021 9.066277 13.557386
10.347435 8.804317 14.385354
9.975386 10.031750 13.376996
10.696966 11.634743 13.204716
10.455100 12.450176 12.669954
11.625928 11.346339 12.983013
      12    89.027437    173.74847            0   0.26537388 
9.839086 9.066618 13.554497
10.344662 8.807421 14.386909
9.954472 10.037943 13.389228
10.695998 11.633410 13.206538
10.443148 12.446000 12.672530
11.628292 11.356973 12.983581
      13    80.348801    175.79574            0   0.23950451 
9.842137 9.066850 13.551632
10.341263 8.810059 14.388669
9.933192 10.043193 13.401422
10.695129 11.632255 13.208350
10.430927 12.441739 12.675120
11.630560 11.368000 12.983770
      14    73.156616    175.34859            0   0.21806598 
9.845168 9.066978 13.548799
10.337226 8.812169 14.390613
9.911830 10.047450 13.413414
10.694347 11.631288 13.210155
10.418520 12.437411 12.677722
11.632666 11.379289 12.983543
      15     67.41557    172.73814            0   0.20095301 
9.848174 9.067001 13.546006
10.332541 8.813700 14.392722
9.890646 10.050704 13.425069
10.693640 11.630518 13.211958
10.406003 12.433039 12.680333
11.634551 11.390715 12.982871
      16    63.096403    168.32023            0   0.18807839 
9.851151 9.066921 13.543261
10.327201 8.814609 14.394973
9.869880 10.052975 13.436272
10.692998 11.629955 13.213764
10.393448 12.428644 12.682947
11.636164 11.402150 12.981725
      17    60.153512    162.51219            0   0.17930619 
9.854093 9.066733 13.540568
10.321205 8.814865 14.397346
9.849738 10.054312 13.446930
10.692409 11.629606 13.215575
10.380928 12.424252 12.685559
11.637466 11.413479 12.980087
      18    58.535066    155.74975            0   0.17448191 
9.856998 9.066433 13.537932
10.314555 8.814447 14.399816
9.830398 10.054784 13.456971
10.691863 11.629477 13.217393
10.368506 12.419894 12.688166
11.638429 11.424594 12.977945
      19    58.213153    148.40559            0   0.17352235 
9.859861 9.066015 13.535358
10.307263 8.813348 14.402359
9.812016 10.054472 13.466335
10.691352 11.629573 13.219220
10.356242 12.415598 12.690764
11.639030 11.435394 12.975291
      20    59.172143    140.74446            0   0.17638092 
9.862679 9.065473 13.532850
10.299346 8.811567 14.404947
9.794744 10.053468 13.474968
10.690867 11.629901 13.221058
10.344195 12.411401 12.693348
11.639252 11.445787 12.972128
      21    61.415409    132.95721            0   0.18306767 
9.865445 9.064796 13.530411
10.290831 8.809116 14.407551
9.778731 10.051871 13.482826
10.690398 11.630465 13.222907
10.332418 12.407338 12.695916
11.639087 11.455689 12.968463
      22    65.343592    123.50043            0   0.19477684 
9.868120 9.063946 13.528061
10.281884 8.806037 14.410094
9.764597 10.049798 13.489620
10.689930 11.631290 13.224762
10.321022 12.403531 12.698501
11.638543 11.465051 12.964384
      23    71.196532    113.04706            0   0.21222334 
9.870695 9.062909 13.525802
10.272533 8.802373 14.412564
9.752522 10.047391 13.495331
10.689454 11.632379 13.226625
10.310043 12.400018 12.701100
11.637617 11.473807 12.959901
      24     78.65323    103.90801            0   0.23445034 
9.873165 9.061673 13.523632
10.262797 8.798172 14.414954
9.742657 10.044784 13.499961
10.688965 11.633734 13.228495
10.299511 12.396836 12.703708
11.636308 11.481897 12.955026
      25    87.661763    96.562644            0   0.26130306 
9.875527 9.060230 13.521550
10.252693 8.793486 14.417259
9.735128 10.042097 13.503532
10.688454 11.635355 13.230374
10.289448 12.394014 12.706321
11.634615 11.489272 12.949769
      26    98.137737    91.409046            0   0.29252995 
9.877776 9.058567 13.519552
10.242293 8.788446 14.419475
9.729948 10.039416 13.506032
10.687923 11.637242 13.232267
10.279843 12.391547 12.708916
11.632541 11.495901 12.944136
      27    109.98155    88.642861            0    0.3278341 
9.879908 9.056679 13.517633
10.231610 8.783108 14.421604
9.727203 10.036822 13.507505
10.687367 11.639393 13.234174
10.270708 12.389454 12.711485
11.630085 11.501749 12.938140
      28    123.10831    88.436681            0    0.3669625 
9.881922 9.054564 13.515789
10.220655 8.777527 14.423649
9.726963 10.034373 13.508005
10.686782 11.641804 13.236097
10.262046 12.387753 12.714023
11.627246 11.506786 12.931800
      29    137.41082    90.943683            0   0.40959556 
9.883818 9.052218 13.514015
10.209437 8.771755 14.425614
9.729281 10.032104 13.507589
10.686166 11.644473 13.238036
10.253860 12.386456 12.716525
11.624022 11.510991 12.925133
      30    152.77138      96.2455            0   0.45538245 
9.885595 9.049643 13.512307
10.197963 8.765846 14.427504
9.734194 10.030022 13.506322
10.685517 11.647395 13.239989
10.246143 12.385573 12.718985
11.620410 11.514355 12.918159
      31    169.06047    104.35118            0   0.50393714 
9.887252 9.046844 13.510659
10.186238 8.759847 14.429322
9.741722 10.028108 13.504270
10.684833 11.650564 13.241957
10.238887 12.385108 12.721402
11.616406 11.516873 12.910901
      32    186.13652    115.19208            0   0.55483762 
9.888791 9.043824 13.509066
10.174267 8.753807 14.431071
9.751867 10.026318 13.501505
10.684115 11.653974 13.243938
10.232076 12.385062 12.723773
11.612006 11.518555 12.903380
      33    203.84059     128.6166            0   0.60761007 
9.890213 9.040593 13.507523
10.162055 8.747768 14.432756
9.764611 10.024582 13.498098
10.683365 11.657617 13.245932
10.225692 12.385430 12.726101
11.607207 11.519418 12.895623
      34    221.99173    144.37924            0   0.66171519 
9.891519 9.037161 13.506024
10.149605 8.741772 14.434376
9.779910 10.022809 13.494125
10.682584 11.661486 13.247937
10.219709 12.386203 12.728386
11.602004 11.519488 12.887655
      35    240.38556    162.13189            0   0.71654369 
9.892713 9.033541 13.504565
10.136922 8.735857 14.435933
9.797689 10.020885 13.489665
10.681775 11.665570 13.249951
10.214098 12.387364 12.730632
11.596394 11.518804 12.879503
      36    258.81963     181.4614            0   0.77149217 
9.893799 9.029747 13.503140
10.124014 8.730056 14.437424
9.817853 10.018684 13.484794
10.680944 11.669859 13.251973
10.208820 12.388885 12.732839
11.590377 11.517415 12.871195
      37    275.52317    199.76638            0   0.82128225 
9.894809 9.025824 13.501735
10.110917 8.724449 14.438843
9.839701 10.016065 13.479691
10.680104 11.674317 13.254008
10.203782 12.390646 12.734979
11.583960 11.515384 12.862747
      38    290.12132    216.11693            0   0.86479656 
9.895748 9.021786 13.500347
10.097636 8.719060 14.440186
9.863122 10.012929 13.474418
10.679262 11.678932 13.256051
10.198934 12.392613 12.737067
11.577148 11.512779 12.854190
      39    304.00122    232.25048            0   0.90616988 
9.896619 9.017649 13.498971
10.084174 8.713907 14.441449
9.888002 10.009178 13.469034
10.678421 11.683691 13.258101
10.194227 12.394755 12.739117
11.569952 11.509684 12.845557
      40    317.10917    247.92433            0    0.9452422 
9.897429 9.013426 13.497606
10.070528 8.709007 14.442628
9.914215 10.004719 13.463599
10.677587 11.688579 13.260153
10.189609 12.397040 12.741152
11.562388 11.506188 12.836879
      41    329.40454    262.85738            0   0.98189236 
9.898182 9.009131 13.496248
10.056696 8.704371 14.443716
9.941619 9.999466 13.458177
10.676766 11.693586 13.262203
10.185026 12.399435 12.743195
11.554477 11.502395 12.828187
      42    340.85053    276.70229            0    1.0160107 
9.898885 9.004775 13.494896
10.042673 8.700006 14.444706
9.970041 9.993344 13.452838
10.675964 11.698697 13.264245
10.180423 12.401910 12.745274
11.546251 11.498415 12.819511
      43    351.40421     289.0243            0    1.0474692 
9.899546 9.000370 13.493546
10.028453 8.695918 14.445592
9.999270 9.986295 13.447656
10.675188 11.703900 13.266274
10.175742 12.404430 12.747419
11.537749 11.494370 12.810878
      44    361.00685     299.2941            0    1.0760928 
9.900174 8.995924 13.492196
10.014031 8.692107 14.446362
10.029043 9.978290 13.442714
10.674446 11.709182 13.268285
10.170924 12.406962 12.749663
11.529021 11.490392 12.802311
      45    369.59184    307.02592            0    1.1016831 
9.900780 8.991444 13.490845
9.999405 8.688570 14.447004
10.059070 9.969330 13.438097
10.673745 11.714529 13.270271
10.165916 12.409470 12.752036
11.520125 11.486610 12.793833
      46    377.03507    311.56204            0    1.1238699 
9.901378 8.986934 13.489491
9.984575 8.685301 14.447507
10.088964 9.959467 13.433898
10.673097 11.719929 13.272226
10.160655 12.411910 12.754572
11.511131 11.483169 12.785459
      47    383.16413    312.16285            0    1.1421395 
9.901984 8.982397 13.488131
9.969541 8.682292 14.447856
10.118280 9.948814 13.430212
10.672511 11.725366 13.274145
10.155074 12.414232 12.757305
11.502118 11.480221 12.777199
      48    387.81432    308.41115            0    1.1560008 
9.902614 8.977831 13.486764
9.954307 8.679527 14.448035
10.146520 9.937546 13.427132
10.672000 11.730826 13.276021
10.149109 12.416379 12.760265
11.493175 11.477918 12.769061
      49    390.81833    300.20249            0    1.1649552 
9.903289 8.973232 13.485389
9.938882 8.676988 14.448027
10.173156 9.925909 13.424742
10.671576 11.736293 13.277849
10.142692 12.418286 12.763487
11.484394 11.476411 12.761044
      50    392.03535    287.88965            0    1.1685829 
9.904027 8.968595 13.484006
9.923274 8.674648 14.447813
10.197647 9.914205 13.423109
10.671252 11.741750 13.279625
10.135758 12.419881 12.766998
11.475873 11.475846 12.753146
      51    392.46792    273.72015            0    1.1698723 
9.904832 8.963904 13.482618
9.907488 8.672463 14.447374
10.219778 9.902661 13.422246
10.671034 11.747195 13.281343
10.128280 12.421136 12.770832
11.467693 11.476348 12.745362
      52    393.15895    260.02899            0    1.1719322 
9.905705 8.959147 13.481231
9.891521 8.670383 14.446691
10.239393 9.891490 13.422150
10.670927 11.752625 13.283000
10.120241 12.422029 12.775019
11.459925 11.478019 12.737680
      53     394.0254    247.69148            0    1.1745149 
9.906651 8.954316 13.479848
9.875364 8.668359 14.445741
10.256386 9.880885 13.422803
10.670931 11.758037 13.284592
10.111634 12.422534 12.779586
11.452619 11.480934 12.730085
      54    394.95739    237.39297            0     1.177293 
9.907670 8.949403 13.478475
9.859002 8.666340 14.444501
10.270691 9.871014 13.424171
10.671049 11.763428 13.286118
10.102457 12.422624 12.784555
11.445810 11.485149 12.722553
      55     395.8591     229.6362            0    1.1799808 
9.908764 8.944407 13.477117
9.842424 8.664276 14.442946
10.282281 9.862008 13.426205
10.671279 11.768794 13.287578
10.092723 12.422274 12.789945
11.439518 11.490697 12.715066
      56    396.63849    224.72215            0     1.182304 
9.909934 8.939329 13.475780
9.825617 8.662119 14.441050
10.291174 9.853961 13.428841
10.671617 11.774132 13.288971
10.082460 12.421468 12.795768
11.433744 11.497585 12.707606
      57    397.21291    222.74469            0    1.1840162 
9.911181 8.934172 13.474470
9.808572 8.659818 14.438784
10.297397 9.846934 13.432003
10.672062 11.779438 13.290300
10.071699 12.420187 12.802032
11.428478 11.505817 12.700159
      58    397.50495    223.66072            0    1.1848868 
9.912506 8.928944 13.473192
9.791282 8.657324 14.436119
10.300992 9.840956 13.435613
10.672607 11.784709 13.291564
10.060475 12.418409 12.808740
11.423704 11.515387 12.692715
      59    397.44223     227.3296            0    1.1846998 
9.913909 8.923653 13.471953
9.773745 8.654585 14.433024
10.302019 9.836025 13.439582
10.673250 11.789941 13.292767
10.048836 12.416118 12.815891
11.419393 11.526280 12.685270
      60    396.95887    233.49851            0     1.183259 
9.915389 8.918311 13.470759
9.755962 8.651550 14.429468
10.300557 9.832104 13.443817
10.673983 11.795131 13.293909
10.036832 12.413303 12.823481
11.415510 11.538471 12.677822
      61    395.99515    241.81791            0    1.1803863 
9.916946 8.912930 13.469617
9.737940 8.648171 14.425420
10.296703 9.829132 13.448222
10.674800 11.800275 13.294993
10.024523 12.409957 12.831498
11.412010 11.551924 12.670378
      62    394.49879    251.85777            0     1.175926 
9.918577 8.907526 13.468531
9.719695 8.644400 14.420849
10.290573 9.827020 13.452702
10.675694 11.805370 13.296021
10.011973 12.406081 12.839928
11.408843 11.566597 12.662949
      63    392.40542    263.07233            0     1.169686 
9.920281 8.902114 13.467508
9.701245 8.640196 14.415728
10.282316 9.825653 13.457163
10.676656 11.810411 13.296996
9.999256 12.401688 12.848753
11.405951 11.582431 12.655549
      64    389.68151    274.90402            0    1.1615666 
9.922053 8.896713 13.466553
9.682619 8.635520 14.410030
10.272094 9.824908 13.461517
10.677677 11.815396 13.297920
9.986446 12.396796 12.857949
11.403278 11.599366 12.648201
      65    386.31991    286.83775            0    1.1515463 
9.923889 8.891337 13.465669
9.663854 8.630340 14.403732
10.260086 9.824649 13.465684
10.678747 11.820320 13.298795
9.973617 12.391431 12.867490
11.400764 11.617338 12.640928
      66    382.31477     298.4156            0    1.1396077 
9.925781 8.886003 13.464860
9.644988 8.624628 14.396814
10.246476 9.824743 13.469595
10.679858 11.825180 13.299624
9.960835 12.385615 12.877346
11.398354 11.636281 12.633756
      67     377.6679    309.11147            0    1.1257563 
9.927722 8.880728 13.464129
9.626071 8.618367 14.389263
10.231492 9.825048 13.473193
10.681000 11.829974 13.300409
9.948174 12.379392 12.887485
11.395991 11.656116 12.626717
      68    372.38027     318.3059            0    1.1099949 
9.929702 8.875525 13.463476
9.607159 8.611551 14.381072
10.215385 9.825428 13.476438
10.682160 11.834696 13.301153
9.935708 12.372815 12.897869
11.393619 11.676757 12.619845
      69    366.47755    325.55829            0       1.0924 
9.931712 8.870407 13.462900
9.588309 8.604185 14.372240
10.198421 9.825758 13.479311
10.683328 11.839345 13.301857
9.923505 12.365947 12.908463
11.391191 11.698114 12.613174
      70    359.99004    330.47426            0    1.0730619 
9.933739 8.865385 13.462399
9.569585 8.596286 14.362775
10.180890 9.825926 13.481814
10.684492 11.843915 13.302523
9.911632 12.358866 12.919230
11.388663 11.720092 12.606742
      71    352.97592    332.77036            0    1.0521542 
9.935771 8.860466 13.461970
9.551049 8.587884 14.352692
10.163089 9.825838 13.483971
10.685641 11.848405 13.303153
9.900150 12.351654 12.930130
11.386000 11.742596 12.600585
      72    345.55038    332.34621            0      1.03002 
9.937796 8.855657 13.461606
9.532760 8.579022 14.342013
10.145319 9.825424 13.485829
10.686761 11.852811 13.303748
9.889110 12.344399 12.941127
11.383172 11.765526 12.594740
      73    337.79116    329.21452            0    1.0068913 
9.939802 8.850960 13.461300
9.514772 8.569754 14.330768
10.127875 9.824635 13.487454
10.687842 11.857130 13.304309
9.878555 12.337195 12.952184
11.380160 11.788786 12.589240
      74    329.95178    323.61383            0   0.98352358 
9.941777 8.846371 13.461046
9.497123 8.560145 14.318984
10.111050 9.823442 13.488939
10.688874 11.861364 13.304837
9.868519 12.330142 12.963274
11.376948 11.812283 12.584112
      75    322.39015    316.00646            0   0.96098381 
9.943710 8.841884 13.460834
9.479836 8.550264 14.306694
10.095101 9.821837 13.490389
10.689848 11.865513 13.305331
9.859027 12.323338 12.974373
11.373527 11.835926 12.579378
      76    315.21469    306.89559            0   0.93959512 
9.945594 8.837492 13.460655
9.462929 8.540188 14.293929
10.080239 9.819833 13.491908
10.690757 11.869580 13.305792
9.850093 12.316875 12.985461
11.369896 11.859635 12.575058
      77    308.41604    296.75521            0   0.91932964 
9.947424 8.833184 13.460502
9.446414 8.529996 14.280725
10.066632 9.817457 13.493595
10.691594 11.873567 13.306219
9.841719 12.310835 12.996524
11.366060 11.883332 12.571167
      78     301.9726    286.01331            0   0.90012297 
9.949194 8.828952 13.460365
9.430298 8.519773 14.267120
10.054416 9.814746 13.495551
10.692355 11.877475 13.306612
9.833906 12.305295 13.007551
11.362032 11.906950 12.567719
      79    295.86993    275.08324            0   0.88193205 
9.950904 8.824786 13.460237
9.414581 8.509600 14.253152
10.043680 9.811739 13.497860
10.693034 11.881306 13.306972
9.826643 12.300317 13.018534
11.357830 11.930424 12.564723
      80    290.10188      264.327            0   0.86473861 
9.952552 8.820677 13.460109
9.399261 8.499560 14.238860
10.034482 9.808477 13.500597
10.693629 11.885062 13.307299
9.819913 12.295952 13.029467
11.353473 11.953695 12.562185
      81     284.6825    254.01535            0   0.84858446 
9.954139 8.816616 13.459975
9.384329 8.489733 14.224281
10.026849 9.804993 13.503824
10.694138 11.888746 13.307593
9.813699 12.292243 13.040350
11.348985 11.976706 12.560106
      82    279.58765    244.34114            0   0.83339767 
9.955667 8.812594 13.459828
9.369776 8.480196 14.209456
10.020789 9.801319 13.507591
10.694558 11.892360 13.307857
9.807980 12.289222 13.051184
11.344390 11.999408 12.558484
      83    274.74054    235.44721            0   0.81894935 
9.957140 8.808606 13.459662
9.355588 8.471020 14.194421
10.016278 9.797480 13.511930
10.694889 11.895906 13.308090
9.802730 12.286903 13.061972
11.339713 12.021754 12.557314
      84    270.79631    226.79756            0   0.80719236 
9.958553 8.804625 13.459469
9.341775 8.462457 14.179334
10.013431 9.793469 13.516700
10.695125 11.899399 13.308303
9.797938 12.285336 13.072698
11.334989 12.043652 12.556595
      85    267.73803    218.52865            0   0.79807622 
9.959912 8.800645 13.459244
9.328313 8.454569 14.164236
10.012208 9.789299 13.521910
10.695264 11.902841 13.308496
9.793582 12.284531 13.083370
11.330248 12.065061 12.556313
      86    264.84749    211.29649            0   0.78946006 
9.961221 8.796663 13.458983
9.315180 8.447414 14.149167
10.012556 9.784975 13.527560
10.695306 11.906233 13.308673
9.789638 12.284491 13.093994
11.325519 12.085946 12.556452
      87    262.09654    205.06219            0   0.78126001 
9.962486 8.792676 13.458682
9.302355 8.441042 14.134167
10.014413 9.780495 13.533635
10.695251 11.909577 13.308834
9.786088 12.285212 13.104578
11.320830 12.106271 12.556995
      88     259.4484     199.7601            0   0.77336638 
9.963712 8.788683 13.458340
9.289820 8.435497 14.119271
10.017710 9.775850 13.540107
10.695099 11.912876 13.308984
9.782910 12.286684 13.115127
11.316209 12.126008 12.557921
      89    256.84482    195.32502            0   0.76560561 
9.964904 8.784684 13.457955
9.277564 8.430818 14.104517
10.022378 9.771029 13.546946
10.694848 11.916130 13.309124
9.780090 12.288896 13.125646
11.311687 12.145137 12.559214
      90    254.24464    191.65376            0   0.75785497 
9.966066 8.780678 13.457525
9.265573 8.427036 14.089938
10.028334 9.766019 13.554102
10.694499 11.919339 13.309257
9.777610 12.291825 13.136140
11.307286 12.163633 12.560851
      91    251.63904    188.60664            0   0.75008817 
9.967204 8.776668 13.457051
9.253841 8.424177 14.075568
10.035491 9.760805 13.561513
10.694053 11.922505 13.309387
9.775456 12.295444 13.146610
11.303032 12.181476 12.562808
      92    249.10177    186.07145            0   0.74252505 
9.968323 8.772653 13.456534
9.242365 8.422255 14.061435
10.043733 9.755376 13.569094
10.693512 11.925632 13.309517
9.773613 12.299721 13.157057
11.298941 12.198652 12.565061
      93    246.68729    183.92685            0   0.73532795 
9.969428 8.768634 13.455975
9.231144 8.421277 14.047566
10.052953 9.749722 13.576756
10.692877 11.928721 13.309651
9.772068 12.304619 13.167484
11.295030 12.215153 12.567581
      94    244.38695    182.06836            0   0.72847107 
9.970521 8.764610 13.455377
9.220177 8.421245 14.033981
10.063045 9.743839 13.584408
10.692152 11.931776 13.309793
9.770811 12.310103 13.177887
11.291313 12.230971 12.570343
      95    242.17461    180.40833            0   0.72187651 
9.971608 8.760582 13.454743
9.209467 8.422154 14.020699
10.073909 9.737724 13.591961
10.691338 11.934798 13.309947
9.769830 12.316134 13.188264
11.287802 12.246101 12.573319
      96    240.00798    178.87439            0   0.71541821 
9.972692 8.756553 13.454075
9.199019 8.424000 14.007734
10.085450 9.731380 13.599326
10.690438 11.937789 13.310116
9.769119 12.322676 13.198610
11.284506 12.260539 12.576485
      97    237.86905    177.42162            0   0.70904246 
9.973776 8.752522 13.453377
9.188838 8.426768 13.995094
10.097579 9.724813 13.606420
10.689454 11.940751 13.310305
9.768667 12.329690 13.208919
11.281432 12.274286 12.579815
      98    235.74214    176.02097            0   0.70270253 
9.974862 8.748491 13.452653
9.178930 8.430445 13.982783
10.110213 9.718036 13.613161
10.688388 11.943686 13.310515
9.768468 12.337140 13.219182
11.278585 12.287342 12.583283
      99    233.61492    174.65664            0   0.69636171 
9.975952 8.744462 13.451905
9.169302 8.435011 13.970803
10.123274 9.711062 13.619474
10.687243 11.946593 13.310751
9.768516 12.344993 13.229392
11.275967 12.299711 12.586866
     100    230.91277    172.81647            0   0.68830709 
9.977051 8.740452 13.451136
9.160006 8.440306 13.959122
10.136560 9.703934 13.625375
10.686026 11.949466 13.311013
9.768793 12.353167 13.239539
11.273571 12.311417 12.590539
     101    227.67051    170.47764            0   0.67864256 
9.978159 8.736462 13.450350
9.151046 8.446314 13.947742
10.150024 9.696670 13.630799
10.684740 11.952305 13.311304
9.769296 12.361643 13.249616
11.271398 12.322467 12.594288
     102    224.47421    168.16021            0     0.669115 
9.979278 8.732492 13.449550
9.142427 8.453015 13.936657
10.163611 9.689298 13.635678
10.683385 11.955110 13.311625
9.770021 12.370394 13.259613
11.269449 12.332868 12.598093
     103    221.31349    165.85638            0   0.65969347 
9.980409 8.728543 13.448740
9.134151 8.460388 13.925857
10.177272 9.681845 13.639948
10.681965 11.957882 13.311980
9.770962 12.379394 13.269522
11.267717 12.342628 12.601935
     104    218.19412    163.60661            0   0.65039522 
9.981553 8.724615 13.447923
9.126222 8.468412 13.915331
10.190962 9.674340 13.643547
10.680481 11.960622 13.312372
9.772116 12.388619 13.279336
11.266199 12.351756 12.605797
     105    215.12253    161.45378            0   0.64123939 
9.982710 8.720707 13.447104
9.118643 8.477065 13.905062
10.204644 9.666815 13.646418
10.678936 11.963329 13.312801
9.773477 12.398047 13.289048
11.264889 12.360262 12.609663
     106    212.10519    159.44216            0   0.63224529 
9.983882 8.716820 13.446287
9.111414 8.486323 13.895031
10.218282 9.659298 13.648506
10.677332 11.966003 13.313271
9.775042 12.407659 13.298650
11.263778 12.368157 12.613519
     107    209.14805    157.61633            0    0.6234306 
9.985068 8.712953 13.445476
9.104539 8.496163 13.885214
10.231846 9.651819 13.649762
10.675671 11.968645 13.313782
9.776807 12.417435 13.308137
11.262858 12.375452 12.617349
     108    206.25618    156.01995            0    0.6148105 
9.986270 8.709108 13.444675
9.098018 8.506560 13.875586
10.245311 9.644406 13.650138
10.673955 11.971255 13.314336
9.778768 12.427360 13.317505
11.262122 12.382159 12.621143
     109     203.4448    154.69815            0   0.60643032 
9.987485 8.705282 13.443889
9.091853 8.517490 13.866118
10.258654 9.637084 13.649589
10.672186 11.973833 13.314935
9.780923 12.437418 13.326750
11.261558 12.388293 12.624889
     110     200.7154    153.68855            0   0.59829448 
9.988716 8.701478 13.443122
9.086046 8.528925 13.856779
10.271857 9.629877 13.648076
10.670367 11.976379 13.315579
9.783269 12.447596 13.335870
11.261156 12.393866 12.628577
     111    198.05686    153.02037            0   0.59036986 
9.989960 8.697696 13.442378
9.080598 8.540836 13.847537
10.284904 9.622803 13.645563
10.668500 11.978892 13.316269
9.785804 12.457880 13.344863
11.260908 12.398893 12.632199
     112    195.46719    152.71934            0   0.58265057 
9.991219 8.693936 13.441661
9.075509 8.553194 13.838357
10.297783 9.615877 13.642016
10.666586 11.981373 13.317006
9.788524 12.468260 13.353728
11.260800 12.403388 12.635747
     113    192.94173    152.80157            0   0.57512266 
9.992490 8.690200 13.440977
9.070783 8.565963 13.829204
10.310484 9.609109 13.637408
10.664628 11.983820 13.317788
9.791430 12.478723 13.362467
11.260823 12.407366 12.639216
     114    190.47335    153.27153            0   0.56776489 
9.993773 8.686491 13.440328
9.066419 8.579107 13.820040
10.322999 9.602504 13.631719
10.662628 11.986235 13.318617
9.794518 12.489260 13.371081
11.260965 12.410843 12.642599
     115    188.04686    154.10792            0   0.56053197 
9.995069 8.682811 13.439719
9.062417 8.592584 13.810826
10.335316 9.596063 13.624927
10.660588 11.988616 13.319492
9.797786 12.499854 13.379572
11.261209 12.413834 12.645888
     116    185.65136    155.29103            0   0.55339144 
9.996374 8.679164 13.439153
9.058780 8.606348 13.801526
10.347431 9.589779 13.617026
10.658509 11.990962 13.320412
9.801232 12.510496 13.387944
11.261547 12.416356 12.649082
     117    183.27698    156.78944            0   0.54631387 
9.997690 8.675554 13.438634
9.055507 8.620346 13.792108
10.359338 9.583639 13.608017
10.656395 11.993274 13.321377
9.804855 12.521177 13.396201
11.261968 12.418429 12.652181
     118    180.62842    157.48353            0   0.53841902 
9.999013 8.671997 13.438157
9.052628 8.634319 13.782591
10.370894 9.577670 13.598032
10.654256 11.995548 13.322380
9.808637 12.531843 13.404341
11.262462 12.420115 12.655202
     119    177.68712    157.29823            0   0.52965157 
10.000345 8.668498 13.437723
9.050128 8.648215 13.772950
10.382096 9.571857 13.587082
10.652093 11.997784 13.323420
9.812575 12.542484 13.412371
11.263019 12.421432 12.658144
     120    174.72819    157.28786            0   0.52083154 
10.001684 8.665062 13.437335
9.047992 8.661987 13.763161
10.392947 9.566179 13.575183
10.649908 11.999981 13.324495
9.816665 12.553089 13.420298
11.263628 12.422398 12.661010
     121    171.75883    157.45419            0   0.51198046 
10.003031 8.661694 13.436992
9.046205 8.675589 13.753203
10.403452 9.560609 13.562358
10.647703 12.002138 13.325603
9.820908 12.563651 13.428131
11.264281 12.423031 12.663803
     122      168.784     157.7815            0   0.50311305 
10.004386 8.658400 13.436697
9.044748 8.688979 13.743060
10.413619 9.555115 13.548637
10.645479 12.004252 13.326742
9.825300 12.574161 13.435878
11.264972 12.423351 12.666526
     123    165.80761    158.23953            0   0.49424098 
10.005749 8.655184 13.436448
9.043605 8.702116 13.732717
10.423459 9.549662 13.534055
10.643237 12.006324 13.327911
9.829842 12.584612 13.443549
11.265692 12.423375 12.669186
     124    162.83228    158.78342            0   0.48537209 
10.007119 8.652052 13.436244
9.042758 8.714960 13.722162
10.432985 9.544210 13.518659
10.640978 12.008352 13.329106
9.834532 12.594996 13.451153
11.266436 12.423122 12.671787
     125    159.85921    159.35437            0   0.47650993 
10.008497 8.649009 13.436085
9.042190 8.727476 13.711391
10.442208 9.538719 13.502503
10.638702 12.010336 13.330325
9.839369 12.605303 13.458702
11.267198 12.422611 12.674336
     126    156.88804    159.88083            0   0.46765344 
10.009882 8.646061 13.435968
9.041884 8.739628 13.700403
10.451143 9.533146 13.485650
10.636411 12.012273 13.331566
9.844352 12.615526 13.466204
11.267974 12.421862 12.676841
     127    153.91691    160.28036            0   0.45879708 
10.011273 8.643211 13.435890
9.041823 8.751381 13.689200
10.459802 9.527451 13.468174
10.634105 12.014163 13.332825
9.849478 12.625655 13.473672
11.268760 12.420895 12.679309
     128     150.9417    160.44986            0   0.44992854 
10.012671 8.640465 13.435847
9.041992 8.762704 13.677796
10.468200 9.521594 13.450165
10.631786 12.016006 13.334098
9.854746 12.635680 13.481119
11.269553 12.419735 12.681752
     129    147.95842    160.29367            0   0.44103595 
10.014076 8.637827 13.435834
9.042374 8.773565 13.666205
10.476349 9.515544 13.431717
10.629453 12.017801 13.335382
9.860153 12.645588 13.488556
11.270352 12.418401 12.684177
     130    144.96367    159.73124            0   0.43210916 
10.015486 8.635300 13.435845
9.042955 8.783939 13.654450
10.484260 9.509271 13.412930
10.627108 12.019548 13.336675
9.865692 12.655366 13.495989
11.271151 12.416913 12.686592
     131    141.95189    158.67296            0   0.42313162 
10.016903 8.632886 13.435873
9.043718 8.793801 13.642556
10.491943 9.502757 13.393913
10.624753 12.021245 13.337973
9.871357 12.665000 13.503428
11.271949 12.415293 12.689003
     132    138.91707    157.03474            0   0.41408539 
10.018324 8.630589 13.435913
9.044649 8.803128 13.630557
10.499407 9.495992 13.374784
10.622388 12.022894 13.339273
9.877139 12.674474 13.510878
11.272740 12.413560 12.691414
     133     135.8575    154.43547            0   0.40496539 
10.019751 8.628404 13.435956
9.045715 8.811801 13.618487
10.506574 9.489021 13.355689
10.620022 12.024500 13.340570
9.883027 12.683766 13.518355
11.273522 12.411758 12.693834
     134    132.75394    150.86079            0   0.39571427 
10.021185 8.626334 13.435994
9.046898 8.819807 13.606382
10.513455 9.481858 13.336753
10.617655 12.026061 13.341861
9.889010 12.692858 13.525866
11.274290 12.409906 12.696265
     135    129.59274    146.57211            0   0.38629134 
10.022623 8.624374 13.436019
9.048182 8.827144 13.594290
10.520063 9.474524 13.318124
10.615290 12.027579 13.343141
9.895074 12.701732 13.533423
11.275041 12.408034 12.698718
     136    126.39808     141.5691            0   0.37676867 
10.024065 8.622523 13.436020
9.049557 8.833820 13.582265
10.526417 9.467050 13.299943
10.612928 12.029053 13.344406
9.901213 12.710374 13.541039
11.275785 12.406172 12.701210
     137    123.20466    136.00033            0    0.3672497 
10.025511 8.620774 13.435990
9.051009 8.839847 13.570358
10.532527 9.459476 13.282322
10.610568 12.030486 13.345653
9.907417 12.718777 13.548715
11.276525 12.404331 12.703748
     138    120.02148     130.0218            0   0.35776123 
10.026959 8.619124 13.435922
9.052527 8.845244 13.558609
10.538406 9.451848 13.265357
10.608213 12.031877 13.346879
9.913676 12.726929 13.556457
11.277264 12.402530 12.706343
     139     116.8551    123.76153            0   0.34832285 
10.028410 8.617565 13.435811
9.054099 8.850037 13.547055
10.544062 9.444216 13.249129
10.605863 12.033228 13.348081
9.919982 12.734818 13.564272
11.278007 12.400784 12.709000
     140    113.71502    117.34745            0   0.33896287 
10.029862 8.616092 13.435651
9.055714 8.854251 13.535725
10.549505 9.436634 13.233704
10.603519 12.034538 13.349257
9.926322 12.742435 13.572164
11.278754 12.399107 12.711726
     141    110.61029    110.89382            0   0.32970827 
10.031317 8.614699 13.435439
9.057361 8.857914 13.524643
10.554742 9.429155 13.219134
10.601182 12.035810 13.350406
9.932688 12.749771 13.580138
11.279509 12.397511 12.714525
     142    107.55092     104.5028            0   0.32058888 
10.032772 8.613379 13.435173
9.059033 8.861059 13.513830
10.559781 9.421831 13.205459
10.598854 12.037044 13.351526
9.939071 12.756816 13.588201
11.280272 12.396005 12.717400
     143    104.54377    98.256715            0   0.31162513 
10.034229 8.612127 13.434850
9.060721 8.863715 13.503302
10.564628 9.414714 13.192713
10.596534 12.038242 13.352615
9.945461 12.763565 13.596359
11.281045 12.394601 12.720355
     144    101.59743    92.228878            0   0.30284263 
10.035686 8.610934 13.434469
9.062419 8.865916 13.493069
10.569293 9.407851 13.180920
10.594224 12.039403 13.353672
9.951851 12.770008 13.604619
11.281829 12.393308 12.723395
     145    98.715382    86.474214            0    0.2942518 
10.037144 8.609796 13.434028
9.064119 8.867692 13.483142
10.573781 9.401290 13.170099
10.591924 12.040530 13.354696
9.958234 12.776141 13.612988
11.282627 12.392135 12.726522
     146    95.896174    81.031902            0   0.28584828 
10.038602 8.608707 13.433528
9.065818 8.869074 13.473529
10.578098 9.395072 13.160265
10.589635 12.041624 13.355685
9.964602 12.781956 13.621473
11.283438 12.391088 12.729736
     147    93.140434    75.938097            0   0.27763394 
10.040059 8.607661 13.432966
9.067510 8.870092 13.464236
10.582250 9.389239 13.151429
10.587358 12.042685 13.356638
9.970950 12.787449 13.630078
11.284263 12.390171 12.733038
     148    90.448205    71.221631            0   0.26960892 
10.041516 8.606653 13.432344
9.069192 8.870773 13.455265
10.586241 9.383827 13.143597
10.585092 12.043715 13.357555
9.977271 12.792614 13.638809
11.285102 12.389389 12.736430
     149    87.818629    66.906569            0   0.26177065 
10.042973 8.605679 13.431661
9.070859 8.871143 13.446621
10.590073 9.378869 13.136774
10.582839 12.044714 13.358435
9.983559 12.797447 13.647671
11.285955 12.388744 12.739912
     150    85.250424    63.012854            0   0.25411532 
10.044429 8.604734 13.430916
9.072510 8.871228 13.438306
10.593748 9.374395 13.130966
10.580599 12.045684 13.359278
9.989811 12.801943 13.656670
11.286823 12.388240 12.743483
     151    82.742011    59.556957            0   0.24663822 
10.045884 8.603815 13.430111
9.074141 8.871050 13.430320
10.597267 9.370430 13.126172
10.578373 12.046625 13.360082
9.996021 12.806097 13.665809
11.287704 12.387878 12.747143
     152     80.29211    56.550505            0   0.23933553 
10.047339 8.602919 13.429244
9.075749 8.870630 13.422665
10.600629 9.366996 13.122395
10.576160 12.047538 13.360848
10.002186 12.809906 13.675092
11.288599 12.387659 12.750891
     153    77.897873    54.008309            0   0.23219876 
10.048794 8.602042 13.428317
9.077332 8.869986 13.415339
10.603832 9.364110 13.119636
10.573961 12.048424 13.361574
10.008302 12.813364 13.684526
11.289507 12.387584 12.754726
     154    75.550763    51.968095            0   0.22520247 
10.050248 8.601182 13.427329
9.078890 8.869141 13.408344
10.606877 9.361788 13.117908
10.571776 12.049284 13.362259
10.014373 12.816463 13.694130
11.290430 12.387663 12.758656
     155     73.25015    50.440083            0   0.21834478 
10.051703 8.600337 13.426281
9.080419 8.868109 13.401676
10.609760 9.360039 13.117212
10.569605 12.050117 13.362901
10.020395 12.819197 13.703908
11.291366 12.387895 12.762680
     156    71.000694    49.405236            0   0.21163958 
10.053158 8.599505 13.425172
9.081917 8.866901 13.395335
10.612473 9.358869 13.117547
10.567448 12.050925 13.363502
10.026367 12.821560 13.713864
11.292316 12.388279 12.766794
     157    68.800925    48.878929            0   0.20508249 
10.054615 8.598686 13.424004
9.083382 8.865528 13.389318
10.615009 9.358278 13.118917
10.565306 12.051709 13.364060
10.032288 12.823545 13.724005
11.293276 12.388815 12.771001
     158    66.649629    48.863471            0   0.19866989 
10.056073 8.597879 13.422775
9.084812 8.863998 13.383624
10.617359 9.358264 13.121323
10.563179 12.052469 13.364574
10.038157 12.825146 13.734334
11.294247 12.389502 12.775297
     159    64.545917    49.345028            0   0.19239912 
10.057534 8.597085 13.421486
9.086203 8.862314 13.378248
10.619510 9.358819 13.124763
10.561067 12.053205 13.365046
10.043972 12.826356 13.744852
11.295223 12.390338 12.779677
     160    62.489022    50.320434            0   0.18626791 
10.058999 8.596305 13.420138
9.087553 8.860479 13.373187
10.621449 9.359933 13.129240
10.558970 12.053919 13.365475
10.049734 12.827167 13.755559
11.296201 12.391319 12.784140
     161    60.478873    51.784001            0   0.18027603 
10.060469 8.595539 13.418731
9.088858 8.858491 13.368436
10.623161 9.361589 13.134752
10.556889 12.054609 13.365862
10.055440 12.827573 13.766456
11.297178 12.392443 12.788678
     162    58.515555    53.728759            0   0.17442376 
10.061944 8.594789 13.417264
9.090116 8.856346 13.363991
10.624630 9.363768 13.141300
10.554825 12.055277 13.366207
10.061091 12.827566 13.777542
11.298148 12.393706 12.793288
     163    56.599288    56.146781            0   0.16871173 
10.063426 8.594059 13.415739
9.091323 8.854041 13.359847
10.625837 9.366446 13.148883
10.552777 12.055923 13.366511
10.066688 12.827140 13.788817
11.299108 12.395105 12.797965
     164    54.731026    59.027433            0   0.16314279 
10.064917 8.593350 13.414154
9.092476 8.851566 13.355998
10.626765 9.369595 13.157499
10.550747 12.056546 13.366775
10.072231 12.826286 13.800277
11.300052 12.396637 12.802701
     165    52.912263     62.35757            0   0.15772141 
10.066418 8.592667 13.412512
9.093572 8.848911 13.352438
10.627393 9.373182 13.167147
10.548733 12.057147 13.366999
10.077721 12.824997 13.811920
11.300975 12.398297 12.807492
     166    51.145077     66.12101            0   0.15245376 
10.067930 8.592013 13.410811
9.094608 8.846065 13.349159
10.627699 9.377171 13.177821
10.546737 12.057726 13.367184
10.083160 12.823265 13.823744
11.301873 12.400082 12.812331
     167    49.432163    70.297827            0   0.14734789 
10.069455 8.591391 13.409053
9.095581 8.843014 13.346154
10.627662 9.381522 13.189514
10.544759 12.058283 13.367332
10.088552 12.821084 13.835743
11.302739 12.401988 12.817210
     168    47.776871    74.863464            0   0.14241378 
10.070994 8.590808 13.407238
9.096490 8.839741 13.343414
10.627259 9.386191 13.202216
10.542799 12.058817 13.367443
10.093898 12.818447 13.847911
11.303568 12.404010 12.822124
     169    46.183236    79.787674            0   0.13766345 
10.072549 8.590267 13.405368
9.097331 8.836230 13.340928
10.626467 9.391130 13.215912
10.540858 12.059329 13.367519
10.099203 12.815348 13.860243
11.304355 12.406143 12.827063
     170    44.657392    85.050876            0    0.1331152 
10.074121 8.589775 13.403443
9.098104 8.832461 13.338684
10.625263 9.396287 13.230585
10.538933 12.059818 13.367561
10.104475 12.811780 13.872733
11.305096 12.408379 12.832023
     171    43.204903    90.607805            0   0.12878561 
10.075713 8.589336 13.401466
9.098808 8.828414 13.336667
10.623625 9.401609 13.246208
10.537027 12.060284 13.367570
10.109720 12.807739 13.885374
11.305786 12.410711 12.836996
     172    41.830642    96.385056            0    0.1246892 
10.077325 8.588958 13.399440
9.099444 8.824069 13.334861
10.621530 9.407039 13.262747
10.535138 12.060726 13.367550
10.114944 12.803220 13.898154
11.306421 12.413133 12.841973
     173    40.541617    102.31613            0   0.12084686 
10.078959 8.588645 13.397366
9.100011 8.819402 13.333245
10.618957 9.412517 13.280158
10.533266 12.061144 13.367502
10.120154 12.798222 13.911061
11.306994 12.415638 12.846946
     174    39.345676    108.32329            0   0.11728199 
10.080616 8.588406 13.395250
9.100512 8.814391 13.331796
10.615886 9.417986 13.298387
10.531410 12.061538 13.367429
10.125356 12.792740 13.924082
11.307501 12.418215 12.851905
     175    38.251569    114.31759            0   0.11402066 
10.082298 8.588245 13.393094
9.100952 8.809014 13.330486
10.612300 9.423388 13.317368
10.529571 12.061906 13.367334
10.130559 12.786777 13.937204
11.307938 12.420855 12.856842
     176     37.26903    120.19986            0    0.1110919 
10.084006 8.588170 13.390905
9.101334 8.803249 13.329283
10.608183 9.428666 13.337023
10.527748 12.062249 13.367219
10.135775 12.780334 13.950409
11.308299 12.423547 12.861746
     177    36.408893    125.86285            0   0.10852799 
10.085739 8.588186 13.388690
9.101666 8.797076 13.328148
10.603524 9.433769 13.357261
10.525939 12.062564 13.367089
10.141012 12.773414 13.963683
11.308583 12.426277 12.866607
     178     35.68526    131.16977            0   0.10637098 
10.087500 8.588299 13.386454
9.101957 8.790478 13.327041
10.598312 9.438651 13.377974
10.524144 12.062851 13.366947
10.146284 12.766026 13.977003
11.308783 12.429029 12.871412
     179    35.111739    136.01352            0   0.10466143 
10.089287 8.588515 13.384207
9.102218 8.783439 13.325912
10.592543 9.443274 13.399043
10.522361 12.063108 13.366798
10.151606 12.758178 13.990352
11.308898 12.431787 12.876151
     180    34.701351    140.31717            0   0.10343814 
10.091102 8.588838 13.381958
9.102461 8.775949 13.324711
10.586215 9.447610 13.420340
10.520588 12.063333 13.366647
10.156993 12.749880 14.003713
11.308926 12.434531 12.880811
     181    34.474024    143.82271            0   0.10276052 
10.092944 8.589271 13.379717
9.102701 8.768006 13.323382
10.579335 9.451641 13.441687
10.518825 12.063526 13.366498
10.162455 12.741151 14.017056
11.308866 12.437242 12.885384
     182     34.44088    146.30471            0   0.10266172 
10.094811 8.589813 13.377495
9.102957 8.759613 13.321874
10.571917 9.455362 13.462906
10.517068 12.063686 13.366358
10.167997 12.732014 14.030352
11.308722 12.439899 12.889862
     183    34.599693    147.79543            0   0.10313511 
10.096703 8.590465 13.375303
9.103246 8.750782 13.320144
10.563980 9.458781 13.483836
10.515319 12.063813 13.366232
10.173625 12.722492 14.043571
11.308493 12.442486 12.894236
     184    34.946742    148.40209            0    0.1041696 
10.098617 8.591223 13.373148
9.103587 8.741528 13.318154
10.555543 9.461918 13.504331
10.513574 12.063905 13.366126
10.179341 12.712609 14.056684
11.308182 12.444985 12.898498
     185      35.4788     148.2423            0   0.10575556 
10.100551 8.592086 13.371039
9.103999 8.731870 13.315875
10.546629 9.464804 13.524262
10.511834 12.063961 13.366045
10.185152 12.702394 14.069666
11.307788 12.447381 12.902638
     186    36.195222     147.4296            0   0.10789108 
10.102505 8.593049 13.368981
9.104501 8.721833 13.313281
10.537263 9.467477 13.543514
10.510096 12.063981 13.365993
10.191059 12.691873 14.082489
11.307314 12.449656 12.906647
     187    37.093905    146.07909            0   0.11056988 
10.104476 8.594110 13.366980
9.105113 8.711442 13.310355
10.527471 9.469979 13.561986
10.508360 12.063963 13.365974
10.197065 12.681075 14.095130
11.306761 12.451798 12.910518
     188    38.170507     144.3027            0   0.11377903 
10.106462 8.595262 13.365039
9.105853 8.700727 13.307084
10.517280 9.472357 13.579591
10.506625 12.063907 13.365994
10.203171 12.670031 14.107566
11.306130 12.453793 12.914242
     189    39.506446    141.93838            0   0.11776121 
10.108459 8.596501 13.363162
9.106745 8.689802 13.303469
10.506793 9.474625 13.596247
10.504885 12.063808 13.366054
10.209376 12.658776 14.119771
11.305442 12.455603 12.917831
     190    41.105505    139.06589            0    0.1225277 
10.110467 8.597821 13.361353
9.107803 8.678697 13.299503
10.496036 9.476837 13.611885
10.503138 12.063667 13.366158
10.215678 12.647338 14.131726
11.304700 12.457214 12.921279
     191    42.882131    136.03276            0   0.12782349 
10.112482 8.599218 13.359612
9.109041 8.667444 13.295183
10.485036 9.479048 13.626448
10.501384 12.063482 13.366309
10.222078 12.635751 14.143417
11.303905 12.458616 12.924576
     192    44.831847    132.92398            0   0.13363522 
10.114505 8.600685 13.357941
9.110471 8.656071 13.290506
10.473817 9.481311 13.639885
10.499622 12.063251 13.366511
10.228573 12.624044 14.154828
11.303058 12.459798 12.927716
     193    46.950297    129.81801            0   0.13994992 
10.116533 8.602217 13.356343
9.112103 8.644606 13.285475
10.462402 9.483678 13.652149
10.497852 12.062975 13.366766
10.235161 12.612251 14.165947
11.302162 12.460748 12.930692
     194    49.233384    126.78829            0   0.14675536 
10.118565 8.603810 13.354817
9.113946 8.633076 13.280093
10.450812 9.486200 13.663201
10.496072 12.062652 13.367076
10.241839 12.600403 14.176761
11.301218 12.461459 12.933495
     195    51.677405    123.90447            0   0.15404053 
10.120600 8.605457 13.353366
9.116010 8.621506 13.274365
10.439066 9.488923 13.673002
10.494283 12.062281 13.367445
10.248605 12.588532 14.187263
11.300229 12.461920 12.936121
     196    54.279202    121.23343            0   0.16179599 
10.122637 8.607155 13.351987
9.118303 8.609917 13.268299
10.427183 9.491892 13.681519
10.492484 12.061861 13.367873
10.255454 12.576671 14.197444
11.299194 12.462123 12.938562
     197    57.036295    118.83985            0   0.17001436 
10.124675 8.608898 13.350683
9.120830 8.598330 13.261901
10.415180 9.495147 13.688720
10.490675 12.061391 13.368364
10.262382 12.564851 14.207298
11.298117 12.462061 12.940812
     198    59.951402    116.77791            0   0.17870374 
10.126713 8.610684 13.349454
9.123597 8.586763 13.255181
10.403074 9.498726 13.694570
10.488855 12.060870 13.368919
10.269385 12.553106 14.216820
11.296998 12.461723 12.942865
     199    63.023573    115.11285            0    0.1878613 
10.128749 8.612508 13.348299
9.126612 8.575232 13.248149
10.390881 9.502658 13.699042
10.487024 12.060297 13.369540
10.276458 12.541465 14.226009
11.295838 12.461102 12.944718
     200    66.247825    113.91363            0   0.19747218 
10.130784 8.614369 13.347218
9.129877 8.563750 13.240814
10.378616 9.506967 13.702110
10.485182 12.059670 13.370228
10.283599 12.529958 14.234863
11.294639 12.460192 12.946364
     201    69.624809    113.23459            0   0.20753833 
10.132817 8.616263 13.346212
9.133398 8.552328 13.233188
10.366294 9.511671 13.703749
10.483328 12.058990 13.370984
10.290802 12.518611 14.243384
11.293402 12.458984 12.947801
     202     73.15636    113.12551            0   0.21806521 
10.134846 8.618191 13.345279
9.137179 8.540974 13.225282
10.353933 9.516782 13.703934
10.481462 12.058254 13.371810
10.298063 12.507451 14.251575
11.292126 12.457473 12.949024
     203    76.844067    113.63279            0   0.22905757 
10.136870 8.620150 13.344421
9.141226 8.529694 13.217106
10.341549 9.522303 13.702646
10.479585 12.057462 13.372705
10.305380 12.496501 14.259440
11.290813 12.455651 12.950030
     204    80.692212    114.79429            0   0.24052816 
10.138889 8.622141 13.343637
9.145541 8.518491 13.208672
10.329161 9.528232 13.699861
10.477695 12.056614 13.373671
10.312749 12.485784 14.266983
11.289463 12.453512 12.950819
     205      84.7079    116.64178            0   0.25249816 
10.140902 8.624165 13.342927
9.150131 8.507368 13.199989
10.316790 9.534557 13.695558
10.475793 12.055706 13.374708
10.320167 12.475320 14.274211
11.288074 12.451050 12.951385
     206    88.897917    119.20334            0    0.2649878 
10.142907 8.626223 13.342292
9.155001 8.496323 13.191069
10.304459 9.541263 13.689713
10.473878 12.054739 13.375816
10.327631 12.465128 14.281130
11.286646 12.448260 12.951729
     207    93.269304    122.50142            0   0.27801808 
10.144902 8.628317 13.341731
9.160157 8.485354 13.181922
10.292195 9.548324 13.682307
10.471950 12.053712 13.376996
10.335137 12.455227 14.287747
11.285177 12.445135 12.951849
     208    97.833447    126.55481            0   0.29162292 
10.146886 8.630451 13.341245
9.165607 8.474456 13.172557
10.280027 9.555710 13.673312
10.470009 12.052622 13.378247
10.342682 12.445637 14.294067
11.283665 12.441669 12.951743
     209    102.68359    130.99363            0   0.30608027 
10.148856 8.632619 13.340838
9.171337 8.463765 13.162944
10.268122 9.563367 13.662682
10.468048 12.051471 13.379570
10.350269 12.436388 14.300096
11.282122 12.437815 12.951412
     210     107.8273    135.86816            0    0.3214127 
10.150808 8.634825 13.340510
9.177354 8.453270 13.153093
10.256523 9.571249 13.650403
10.466066 12.050257 13.380965
10.357897 12.427490 14.305841
11.280548 12.433567 12.950859
     211    113.19509    141.58673            0   0.33741305 
10.152741 8.637075 13.340261
9.183663 8.442958 13.143015
10.245275 9.579306 13.636465
10.464063 12.048980 13.382431
10.365561 12.418949 14.311313
11.278938 12.428919 12.950085
     212    118.79075    148.14833            0   0.35409265 
10.154651 8.639375 13.340090
9.190271 8.432809 13.132724
10.234424 9.587478 13.620866
10.462038 12.047639 13.383968
10.373263 12.410765 14.316522
11.277291 12.423867 12.949094
     213    124.60856    155.52197            0   0.37143445 
10.156536 8.641731 13.339996
9.197187 8.422801 13.122237
10.224023 9.595698 13.603613
10.459992 12.046232 13.385572
10.381000 12.402935 14.321480
11.275603 12.418406 12.947892
     214    130.64569    163.65566            0   0.38942998 
10.158392 8.644153 13.339979
9.204423 8.412909 13.111573
10.214122 9.603888 13.584727
10.457923 12.044759 13.387243
10.388771 12.395448 14.326198
11.273873 12.412536 12.946487
     215    136.89488     172.4682            0   0.40805764 
10.160215 8.646648 13.340034
9.211990 8.403104 13.100752
10.204776 9.611969 13.564240
10.455833 12.043220 13.388978
10.396574 12.388292 14.330686
11.272097 12.406257 12.944887
     216    143.35229    181.85681            0   0.42730596 
10.162001 8.649225 13.340159
9.219901 8.393359 13.089801
10.196039 9.619854 13.542198
10.453720 12.041612 13.390775
10.404408 12.381454 14.334955
11.270269 12.399573 12.943102
     217    150.00193    191.66852            0   0.44712726 
10.163746 8.651892 13.340350
9.228169 8.383642 13.078746
10.187963 9.627450 13.518674
10.451586 12.039936 13.392630
10.412268 12.374909 14.339017
11.268388 12.392490 12.941143
     218    156.81363    201.68691            0   0.46743164 
10.165447 8.654661 13.340600
9.236809 8.373925 13.067621
10.180595 9.634665 13.493769
10.449430 12.038192 13.394540
10.420153 12.368630 14.342883
11.266447 12.385020 12.939024
     219    163.76004    211.66052            0   0.48813758 
10.167100 8.657538 13.340902
9.245833 8.364181 13.056458
10.173975 9.641407 13.467609
10.447254 12.036379 13.396500
10.428057 12.362583 14.346564
11.264442 12.377177 12.936761
     220    170.81157    221.29971            0   0.50915684 
10.168702 8.660534 13.341247
9.255257 8.354384 13.045293
10.168135 9.647588 13.440356
10.445059 12.034496 13.398504
10.435975 12.356727 14.350074
11.262368 12.368983 12.934368
     221    177.93998    230.29327            0   0.53040529 
10.170250 8.663655 13.341626
9.265090 8.344515 13.034161
10.163090 9.653134 13.412199
10.442845 12.032543 13.400547
10.443901 12.351020 14.353423
11.260221 12.360461 12.931863
     222    185.13974    238.45452            0   0.55186641 
10.171742 8.666909 13.342028
9.275346 8.334562 13.023093
10.158858 9.657983 13.383323
10.440614 12.030520 13.402625
10.451830 12.345433 14.356618
11.257995 12.351628 12.929257
     223    192.39927    245.46308            0   0.57350567 
10.173178 8.670300 13.342441
9.286034 8.324519 13.012122
10.155420 9.662092 13.353983
10.438367 12.028425 13.404728
10.459754 12.339908 14.359674
11.255686 12.342518 12.926570
     224    199.70242    250.86275            0   0.59527499 
10.174558 8.673834 13.342852
9.297164 8.314384 13.001275
10.152732 9.665441 13.324457
10.436109 12.026255 13.406849
10.467661 12.334384 14.362601
11.253287 12.333178 12.923820
     225    207.04508    254.42143            0   0.61716207 
10.175884 8.677512 13.343248
9.308743 8.304164 12.990576
10.150733 9.668039 13.295039
10.433840 12.024008 13.408980
10.475539 12.328794 14.365415
11.250795 12.323655 12.921028
     226    214.18207     255.9554            0   0.63843605 
10.177157 8.681331 13.343615
9.320776 8.293869 12.980044
10.149334 9.669918 13.266017
10.431567 12.021688 13.411111
10.483371 12.323080 14.368127
11.248207 12.314008 12.918215
     227    220.88565    255.47582            0   0.65841818 
10.178382 8.685282 13.343943
9.333265 8.283515 12.969696
10.148441 9.671135 13.237651
10.429291 12.019295 13.413234
10.491141 12.317187 14.370749
11.245524 12.304293 12.915400
     228    227.19255    253.24479            0   0.67721782 
10.179561 8.689357 13.344222
9.346211 8.273126 12.959542
10.147952 9.671768 13.210167
10.427017 12.016833 13.415342
10.498833 12.311065 14.373294
11.242748 12.294566 12.912602
     229    233.15513    249.56488            0   0.69499116 
10.180699 8.693547 13.344445
9.359608 8.262736 12.949589
10.147768 9.671910 13.183753
10.424748 12.014303 13.417429
10.506430 12.304666 14.375770
11.239881 12.284875 12.909837
     230    238.69764      244.133            0   0.71151232 
10.181803 8.697827 13.344604
9.373380 8.252510 12.939826
10.147915 9.671670 13.158644
10.422481 12.011714 13.419484
10.513924 12.297922 14.378193
11.236941 12.275241 12.907128
     231    243.84121    237.25057            0   0.72684431 
10.182877 8.702186 13.344697
9.387506 8.242494 12.930249
10.148291 9.671163 13.134966
10.420218 12.009067 13.421503
10.521298 12.290792 14.380572
11.233934 12.265706 12.904490
     232    248.74092    229.81675            0   0.74144944 
10.183928 8.706613 13.344721
9.401961 8.232734 12.920851
10.148799 9.670504 13.112819
10.417961 12.006365 13.423479
10.528533 12.283239 14.382914
11.230869 12.256309 12.901935
     233    253.49371    222.25648            0    0.7556166 
10.184962 8.711096 13.344677
9.416723 8.223278 12.911615
10.149360 9.669797 13.092242
10.415712 12.003608 13.425411
10.535622 12.275240 14.385223
11.227754 12.247071 12.899471
     234    258.12732    214.80147            0   0.76942851 
10.185984 8.715624 13.344566
9.431768 8.214171 12.902524
10.149881 9.669146 13.073287
10.413472 12.000798 13.427295
10.542548 12.266766 14.387504
11.224596 12.238027 12.897106
     235    262.59892    207.50265            0    0.7827575 
10.187001 8.720188 13.344389
9.447068 8.205455 12.893558
10.150262 9.668648 13.055988
10.411243 11.997935 13.429127
10.549292 12.257794 14.389760
11.221403 12.229216 12.894852
     236    266.91449    200.53726            0   0.79562138 
10.188018 8.724778 13.344148
9.462599 8.197172 12.884693
10.150411 9.668390 13.040368
10.409029 11.995020 13.430903
10.555837 12.248298 14.391995
11.218186 12.220675 12.892718
     237    271.08652    194.11013            0   0.80805743 
10.189041 8.729385 13.343848
9.478339 8.189361 12.875899
10.150239 9.668446 13.026425
10.406829 11.992053 13.432622
10.562170 12.238261 14.394210
11.214954 12.212434 12.890712
     238    275.13742    188.38968            0   0.82013239 
10.190076 8.734000 13.343493
9.494264 8.182058 12.867146
10.149664 9.668880 13.014151
10.404647 11.989036 13.434282
10.568277 12.227668 14.396405
11.211715 12.204523 12.888840
     239    279.08446    183.50086            0   0.83189776 
10.191126 8.738618 13.343087
9.510356 8.175296 12.858401
10.148611 9.669742 13.003527
10.402484 11.985969 13.435881
10.574145 12.216505 14.398578
11.208478 12.196971 12.887108
     240    282.94622    179.54489            0   0.84340894 
10.192197 8.743233 13.342634
9.526595 8.169107 12.849630
10.147010 9.671069 12.994527
10.400340 11.982852 13.437418
10.579765 12.204764 14.400726
11.205251 12.189802 12.885521
     241     286.7425    176.60054            0   0.85472491 
10.193292 8.747839 13.342141
9.542964 8.163519 12.840799
10.144798 9.672885 12.987122
10.398217 11.979686 13.438891
10.585127 12.192436 14.402843
11.202043 12.183039 12.884084
     242    290.49498    174.72597            0   0.86591036 
10.194415 8.752434 13.341611
9.559447 8.158562 12.831874
10.141921 9.675204 12.981279
10.396116 11.976471 13.440301
10.590223 12.179518 14.404923
11.198862 12.176705 12.882802
     243    294.24986    173.96526            0   0.87710294 
10.195570 8.757014 13.341050
9.576029 8.154262 12.822822
10.138331 9.678026 12.976962
10.394038 11.973206 13.441647
10.595047 12.166007 14.406957
11.195714 12.170815 12.881679
     244    298.03372     174.3378            0    0.8883819 
10.196758 8.761577 13.340461
9.592696 8.150644 12.813613
10.133991 9.681341 12.974135
10.391982 11.969892 13.442930
10.599593 12.151901 14.408937
11.192607 12.165386 12.880719
     245    301.85243    175.83825            0   0.89976474 
10.197983 8.766123 13.339851
9.609432 8.147734 12.804217
10.128872 9.685127 12.972759
10.389950 11.966529 13.444148
10.603858 12.137202 14.410851
11.189548 12.160428 12.879927
     246    305.73941    178.44595            0   0.91135112 
10.199246 8.770652 13.339221
9.626223 8.145557 12.794610
10.122953 9.689354 12.972798
10.387940 11.963117 13.445304
10.607838 12.121914 14.412686
11.186542 12.155951 12.879310
     247    309.72881    182.12378            0   0.92324276 
10.200549 8.775164 13.338577
9.643054 8.144136 12.784769
10.116227 9.693982 12.974209
10.385953 11.959654 13.446397
10.611534 12.106041 14.414428
11.183595 12.151958 12.878870
     248    313.85537    186.81248            0   0.93554325 
10.201893 8.779661 13.337922
9.659907 8.143496 12.774676
10.108697 9.698961 12.976950
10.383989 11.956142 13.447429
10.614947 12.089591 14.416062
11.180711 12.148450 12.878614
     249    318.14916    192.42538            0   0.94834221 
10.203279 8.784143 13.337258
9.676763 8.143659 12.764318
10.100380 9.704238 12.980975
10.382045 11.952579 13.448401
10.618077 12.072571 14.417571
11.177895 12.145425 12.878547
     250    322.68778    198.84081            0   0.96187098 
10.204706 8.788616 13.336588
9.693601 8.144647 12.753687
10.091312 9.709751 12.986228
10.380121 11.948964 13.449315
10.620929 12.054999 14.418938
11.175147 12.142871 12.878671
     251    327.53693    205.91488            0   0.97632536 
10.206176 8.793082 13.335916
9.710396 8.146481 12.742781
10.081542 9.715435 12.992650
10.378215 11.945298 13.450173
10.623509 12.036889 14.420144
11.172469 12.140774 12.878991
     252    332.72476    213.49287            0   0.99178931 
10.207687 8.797546 13.335243
9.727120 8.149182 12.731604
10.071134 9.721226 13.000179
10.376325 11.941577 13.450979
10.625824 12.018259 14.421170
11.169862 12.139117 12.879510
     253    338.31492      221.382            0    1.0084525 
10.209238 8.802011 13.334572
9.743741 8.152767 12.720165
10.060170 9.727059 13.008744
10.374448 11.937803 13.451734
10.627881 11.999130 14.421997
11.167324 12.137877 12.880229
     254    344.37866    229.36432            0    1.0265274 
10.210827 8.806482 13.333904
9.760218 8.157251 12.708483
10.048750 9.732874 13.018263
10.372582 11.933971 13.452442
10.629687 11.979529 14.422608
11.164853 12.137024 12.881150
     255     351.0276     237.2089            0    1.0463466 
10.212454 8.810965 13.333240
9.776510 8.162646 12.696580
10.036995 9.738616 13.028646
10.370722 11.930080 13.453107
10.631253 11.959486 14.422983
11.162447 12.136523 12.882272
     256    358.18467    244.61317            0    1.0676805 
10.214115 8.815463 13.332582
9.792571 8.168950 12.684492
10.025043 9.744236 13.039781
10.368865 11.926131 13.453734
10.632590 11.939039 14.423107
11.160099 12.136334 12.883591
     257    365.55634     251.2648            0     1.089654 
10.215807 8.819979 13.331932
9.808369 8.176147 12.672254
10.013041 9.749693 13.051545
10.367008 11.922125 13.454329
10.633718 11.918220 14.422962
11.157805 12.136410 12.885098
     258    373.00091    257.00019            0    1.1118449 
10.217525 8.824512 13.331290
9.823870 8.184216 12.659906
10.001132 9.754959 13.063817
10.365147 11.918066 13.454896
10.634653 11.897068 14.422536
11.155555 12.136705 12.886783
     259    380.51526     261.7632            0    1.1342437 
10.219264 8.829063 13.330658
9.839049 8.193130 12.647485
9.989457 9.760020 13.076477
10.363278 11.913956 13.455442
10.635411 11.875620 14.421814
11.153344 12.137175 12.888635
     260    388.09025    265.53956            0    1.1568233 
10.221021 8.833633 13.330036
9.853885 8.202860 12.635028
9.978149 9.764876 13.089411
10.361399 11.909796 13.455972
10.636011 11.853917 14.420786
11.151162 12.137775 12.890641
     261    395.71077    268.41214            0    1.1795386 
10.222792 8.838222 13.329425
9.868359 8.213374 12.622571
9.967322 9.769539 13.102526
10.359506 11.905589 13.456490
10.636461 11.831995 14.419444
11.149004 12.138471 12.892790
     262    403.38482    270.44257            0    1.2024135 
10.224572 8.842828 13.328826
9.882462 8.224636 12.610147
9.957092 9.774031 13.115719
10.357597 11.901335 13.457003
10.636779 11.809897 14.417782
11.146861 12.139225 12.895068
     263    411.08771    271.64059            0    1.2253744 
10.226356 8.847450 13.328238
9.896193 8.236604 12.597787
9.947567 9.778385 13.128894
10.355670 11.897036 13.457513
10.636977 11.787670 14.415796
11.144721 12.140002 12.897456
     264    418.75148    272.07599            0    1.2482186 
10.228140 8.852088 13.327663
9.909556 8.249237 12.585521
9.938843 9.782637 13.141961
10.353723 11.892692 13.458028
10.637074 11.765360 14.413486
11.142577 12.140768 12.899935
     265    426.31955    271.83196            0    1.2707776 
10.229919 8.856738 13.327099
9.922563 8.262486 12.573376
9.931005 9.786833 13.154838
10.351754 11.888304 13.458551
10.637082 11.743019 14.410853
11.140415 12.141493 12.902485
     266     433.7276    270.99385            0    1.2928596 
10.231687 8.861398 13.326547
9.935232 8.276305 12.561380
9.924127 9.791019 13.167449
10.349763 11.883875 13.459086
10.637019 11.720698 14.407905
11.138227 12.142152 12.905086
     267     440.8984    269.64699            0    1.3142344 
10.233441 8.866065 13.326005
9.947584 8.290643 12.549554
9.918275 9.795244 13.179727
10.347747 11.879404 13.459639
10.636899 11.698448 14.404650
11.136000 12.142720 12.907713
     268    447.75586     267.8699            0    1.3346752 
10.235175 8.870736 13.325473
9.959649 8.305446 12.537924
9.913501 9.799556 13.191611
10.345708 11.874894 13.460213
10.636739 11.676327 14.401102
11.133724 12.143174 12.910344
     269    454.22583    265.73112            0    1.3539609 
10.236884 8.875407 13.324948
9.971458 8.320661 12.526509
9.909849 9.804001 13.203049
10.343643 11.870346 13.460812
10.636554 11.654392 14.397278
11.131386 12.143500 12.912955
     270    460.23022      263.292            0    1.3718589 
10.238565 8.880075 13.324431
9.983047 8.336230 12.515331
9.907351 9.808623 13.213992
10.341554 11.865760 13.461440
10.636361 11.632704 14.393199
11.128974 12.143682 12.915520
     271    465.68739    260.60534            0    1.3881257 
10.240211 8.884737 13.323916
9.994457 8.352093 12.504408
9.906033 9.813458 13.224403
10.339441 11.861139 13.462101
10.636179 11.611327 14.388891
11.126475 12.143712 12.918015
     272    470.50559    257.71116            0    1.4024878 
10.241819 8.889389 13.323404
10.005730 8.368189 12.493759
9.905909 9.818537 13.234248
10.337304 11.856484 13.462797
10.636024 11.590327 14.384386
11.123877 12.143582 12.920416
     273    474.59174    254.63435            0    1.4146678 
10.243384 8.894029 13.322889
10.016908 8.384453 12.483401
9.906984 9.823885 13.243501
10.335144 11.851796 13.463531
10.635917 11.569772 14.379719
11.121165 12.143290 12.922698
     274    477.87294    251.34162            0    1.4244484 
10.244902 8.898654 13.322369
10.028045 8.400809 12.473356
9.909254 9.829517 13.252125
10.332963 11.847077 13.464308
10.635880 11.549743 14.374931
11.118324 12.142832 12.924830
     275     480.2615    247.83917            0    1.4315683 
10.246368 8.903260 13.321839
10.039184 8.417186 12.463640
9.912706 9.835440 13.260106
10.330763 11.842329 13.465130
10.635936 11.530317 14.370071
11.115340 12.142211 12.926791
     276    481.65603     244.1657            0    1.4357251 
10.247778 8.907847 13.321296
10.050370 8.433509 12.454270
9.917315 9.841652 13.267431
10.328544 11.837552 13.465998
10.636105 11.511571 14.365188
11.112198 12.141436 12.928558
     277    481.98914    240.30892            0    1.4367181 
10.249130 8.912411 13.320735
10.061646 8.449703 12.445263
9.923047 9.848143 13.274092
10.326311 11.832749 13.466915
10.636411 11.493589 14.360340
11.108884 12.140519 12.930113
     278    481.18872    236.24473            0    1.4343322 
10.250421 8.916951 13.320150
10.073052 8.465686 12.436634
9.929854 9.854891 13.280083
10.324064 11.827922 13.467882
10.636875 11.476457 14.355588
11.105383 12.139476 12.931437
     279    479.18176    231.94244            0    1.4283498 
10.251649 8.921465 13.319537
10.084626 8.481374 12.428401
9.937678 9.861867 13.285397
10.321806 11.823073 13.468900
10.637522 11.460265 14.350997
11.101683 12.138325 12.932515
     280     475.9189    227.38088            0    1.4186238 
10.252811 8.925952 13.318889
10.096400 8.496676 12.420581
9.946447 9.869037 13.290030
10.319542 11.818203 13.469971
10.638377 11.445103 14.346636
11.097767 12.137089 12.933336
     281     471.3815    222.55709            0    1.4050987 
10.253909 8.930412 13.318203
10.108403 8.511503 12.413193
9.956080 9.876356 13.293973
10.317274 11.813315 13.471096
10.639464 11.431064 14.342576
11.093623 12.135791 12.933889
     282    466.29348     215.8439            0    1.3899323 
10.254961 8.934887 13.317460
10.120485 8.525224 12.406530
9.966286 9.883747 13.296720
10.315009 11.808402 13.472296
10.640794 11.418304 14.338950
11.089252 12.134385 12.934167
     283    460.73124    207.77815            0    1.3733523 
10.255971 8.939374 13.316657
10.132654 8.537757 12.400581
9.976971 9.891173 13.298261
10.312750 11.803470 13.473573
10.642385 11.406898 14.335822
11.084644 12.132896 12.934168
     284    454.06232    200.32012            0    1.3534735 
10.256938 8.943873 13.315793
10.144915 8.549023 12.395334
9.988038 9.898596 13.298575
10.310501 11.798519 13.474927
10.644252 11.396926 14.333259
11.079788 12.131352 12.933893
     285    446.36484    193.63676            0    1.3305288 
10.257867 8.948380 13.314864
10.157268 8.558954 12.390782
9.999389 9.905977 13.297647
10.308265 11.793553 13.476358
10.646410 11.388466 14.331322
11.074676 12.129784 12.933346
     286     437.7281    187.92583            0    1.3047843 
10.258761 8.952891 13.313868
10.169708 8.567494 12.386917
10.010927 9.913276 13.295465
10.306045 11.788576 13.477866
10.648864 11.381583 14.330058
11.069299 12.128223 12.932538
     287    428.24461    183.36197            0    1.2765159 
10.259621 8.957403 13.312803
10.182225 8.574600 12.383733
10.022554 9.920454 13.292018
10.303846 11.783591 13.479450
10.651617 11.376334 14.329507
11.063652 12.126702 12.931482
     288    418.00654     180.0894            0    1.2459981 
10.260453 8.961911 13.311667
10.194805 8.580237 12.381229
10.034178 9.927471 13.287298
10.301670 11.778602 13.481110
10.654660 11.372763 14.329693
11.057729 12.125255 12.930197
     289     407.1297    178.22409            0    1.2135763 
10.261262 8.966409 13.310459
10.207424 8.584387 12.379406
10.045714 9.934288 13.281302
10.299522 11.773614 13.482846
10.657976 11.370903 14.330628
11.051530 12.123916 12.928706
     290    395.73418    177.83687            0    1.1796084 
10.262050 8.970893 13.309177
10.220054 8.587040 12.378267
10.057080 9.940868 13.274030
10.297405 11.768633 13.484657
10.661539 11.370770 14.332307
11.045056 12.122719 12.927036
     291    383.93693    178.94241            0    1.1444431 
10.262825 8.975355 13.307821
10.232659 8.588203 12.377819
10.068207 9.947174 13.265488
10.295322 11.763664 13.486542
10.665310 11.372363 14.334712
11.038309 12.121697 12.925220
     292    371.85722    181.49452            0    1.1084357 
10.263592 8.979789 13.306390
10.245197 8.587895 12.378069
10.079033 9.953169 13.255690
10.293278 11.758714 13.488501
10.669242 11.375665 14.337809
11.031294 12.120885 12.923290
     293    359.58099     185.3698            0    1.0718426 
10.264355 8.984189 13.304885
10.257622 8.586150 12.379023
10.089506 9.958817 13.244657
10.291276 11.753792 13.490532
10.673279 11.380640 14.341550
11.024020 12.120319 12.921285
     294     347.1473    190.31111            0    1.0347802 
10.265123 8.988544 13.303305
10.269883 8.583023 12.380684
10.099579 9.964081 13.232432
10.289318 11.748905 13.492634
10.677352 11.387216 14.345870
11.016497 12.120032 12.919244
     295    334.60133    196.04159            0     0.997383 
10.265901 8.992846 13.301652
10.281928 8.578578 12.383053
10.109216 9.968924 13.219060
10.287410 11.744065 13.494804
10.681390 11.395322 14.350700
11.008734 12.120065 12.917210
     296    321.98544    202.30532            0   0.95977745 
10.266694 8.997086 13.299928
10.293700 8.572893 12.386128
10.118388 9.973312 13.204597
10.285553 11.739281 13.497038
10.685317 11.404867 14.355966
11.000742 12.120459 12.915224
     297    309.30929    208.74061            0   0.92199225 
10.267509 9.001252 13.298135
10.305148 8.566062 12.389899
10.127075 9.977210 13.189118
10.283751 11.734564 13.499335
10.689056 11.415742 14.361588
10.992529 12.121256 12.913329
     298    294.88641    212.08778            0   0.87900037 
10.268329 9.005279 13.296286
10.316469 8.558833 12.394029
10.135321 9.980633 13.173433
10.282010 11.729937 13.501656
10.692581 11.427683 14.367378
10.984065 12.122656 12.911580
     299    278.72167    211.53595            0   0.83081635 
10.269157 9.009151 13.294388
10.327624 8.551308 12.398474
10.143111 9.983582 13.157650
10.280333 11.725413 13.503997
10.695821 11.440545 14.373261
10.975352 12.124705 12.910015
     300    262.55842    209.64934            0   0.78263678 
10.269998 9.012858 13.292444
10.338579 8.543588 12.403184
10.150437 9.986065 13.141873
10.278722 11.721006 13.506351
10.698713 11.454175 14.379168
10.966391 12.127443 12.908672
     301    246.41408    206.19304            0   0.73451357 
10.270856 9.016382 13.290461
10.349296 8.535782 12.408094
10.157326 9.988101 13.126228
10.277179 11.716732 13.508710
10.701200 11.468365 14.385020
10.957183 12.130918 12.907591
     302    230.40054    201.21607            0   0.68678024 
10.271734 9.019711 13.288444
10.359746 8.527975 12.413145
10.163782 9.989707 13.110810
10.275704 11.712607 13.511067
10.703236 11.482956 14.390769
10.947726 12.135162 12.906805
     303    214.72599    195.07176            0    0.6400574 
10.272634 9.022834 13.286400
10.369902 8.520240 12.418277
10.169814 9.990906 13.095704
10.274298 11.708643 13.513415
10.704781 11.497790 14.396379
10.938014 12.140202 12.906343
     304    199.53664    187.94602            0   0.59478081 
10.273559 9.025739 13.284333
10.379740 8.512643 12.423428
10.175441 9.991723 13.080988
10.272962 11.704856 13.515748
10.705807 11.512715 14.401822
10.928043 12.146057 12.906232
     305    184.96091      180.034            0   0.55133334 
10.274512 9.028416 13.282250
10.389237 8.505240 12.428538
10.180687 9.992185 13.066738
10.271695 11.701259 13.518059
10.706295 11.527582 14.407080
10.917805 12.152744 12.906502
     306    171.13298    171.57106            0   0.51011492 
10.275493 9.030853 13.280156
10.398377 8.498077 12.433546
10.185579 9.992323 13.053018
10.270495 11.697866 13.520341
10.706234 11.542253 14.412146
10.907293 12.160273 12.907178
     307    158.20329    162.81891            0   0.47157397 
10.276504 9.033043 13.278055
10.407143 8.491192 12.438394
10.190151 9.992167 13.039884
10.269362 11.694688 13.522587
10.705626 11.556601 14.417017
10.896498 12.168645 12.908287
     308    146.25218    153.93793            0   0.43594998 
10.277546 9.034975 13.275953
10.415526 8.484623 12.443022
10.194435 9.991747 13.027400
10.268293 11.691741 13.524789
10.704477 11.570493 14.421697
10.885416 12.177867 12.909858
     309    135.43228    145.19019            0   0.40369789 
10.278619 9.036641 13.273855
10.423516 8.478395 12.447377
10.198471 9.991097 13.015610
10.267285 11.689034 13.526943
10.702804 11.583825 14.426195
10.874037 12.187929 12.911917
     310    125.93602    136.90806            0   0.37539134 
10.279722 9.038036 13.271764
10.431106 8.472520 12.451414
10.202302 9.990245 13.004551
10.266335 11.686578 13.529041
10.700630 11.596504 14.430526
10.862355 12.198814 12.914489
     311    117.87974    129.31137            0   0.35137713 
10.280856 9.039155 13.269684
10.438295 8.467009 12.455092
10.205972 9.989223 12.994249
10.265439 11.684382 13.531079
10.697984 11.608450 14.434705
10.850365 12.210502 12.917598
     312    111.35484    122.58096            0   0.33192763 
10.282020 9.039995 13.267618
10.445082 8.461863 12.458375
10.209525 9.988056 12.984730
10.264593 11.682452 13.533053
10.694899 11.619595 14.438749
10.838061 12.222963 12.921267
     313    106.42533    116.86353            0   0.31723369 
10.283213 9.040554 13.265568
10.451468 8.457085 12.461233
10.213005 9.986772 12.976010
10.263793 11.680795 13.534957
10.691412 11.629883 14.442674
10.825442 12.236166 12.925520
     314    103.13346    112.27818            0   0.30742125 
10.284434 9.040830 13.263536
10.457457 8.452673 12.463639
10.216455 9.985394 12.968106
10.263035 11.679417 13.536789
10.687562 11.639267 14.446495
10.812505 12.250076 12.930381
     315    101.51985    108.90056            0    0.3026114 
10.285682 9.040822 13.261523
10.463056 8.448621 12.465573
10.219927 9.983943 12.961026
10.262313 11.678321 13.538545
10.683392 11.647712 14.450222
10.799253 12.264647 12.935868
     316    101.59237    106.79803            0   0.30282755 
10.286956 9.040530 13.259532
10.468270 8.444923 12.467019
10.223458 9.982440 12.954779
10.261624 11.677512 13.540222
10.678942 11.655193 14.453868
10.785686 12.279838 12.942006
     317    103.30863    106.02813            0   0.30794339 
10.288254 9.039957 13.257562
10.473110 8.441577 12.467961
10.227084 9.980901 12.949370
10.260963 11.676990 13.541819
10.674251 11.661697 14.457439
10.771808 12.295604 12.948815
     318     106.6257    106.60557            0   0.31783097 
10.289575 9.039104 13.255615
10.477584 8.438578 12.468392
10.230836 9.979341 12.944802
10.260325 11.676756 13.543333
10.669356 11.667218 14.460941
10.757621 12.311899 12.956316
     319    111.47651    108.51827            0   0.33229031 
10.290917 9.037976 13.253691
10.481706 8.435922 12.468306
10.234744 9.977771 12.941075
10.259709 11.676808 13.544764
10.664291 11.671758 14.464377
10.743131 12.328673 12.964528
     320     117.7663    111.72747            0   0.35103896 
10.292280 9.036577 13.251790
10.485487 8.433605 12.467700
10.238828 9.976202 12.938186
10.259110 11.677143 13.546110
10.659089 11.675326 14.467746
10.728343 12.345873 12.973467
     321     125.3869    116.17293            0   0.37375453 
10.293663 9.034912 13.249911
10.488943 8.431625 12.466579
10.243109 9.974638 12.936129
10.258524 11.677760 13.547371
10.653778 11.677938 14.471046
10.713264 12.363444 12.983147
     322    134.21679    121.77769            0   0.40007475 
10.295063 9.032988 13.248055
10.492089 8.429979 12.464945
10.247601 9.973083 12.934897
10.257951 11.678653 13.548548
10.648383 11.679614 14.474270
10.697901 12.381330 12.993580
     323    144.12055    128.44161            0   0.42959598 
10.296480 9.030812 13.246220
10.494941 8.428664 12.462810
10.252310 9.971538 12.934478
10.257386 11.679818 13.549640
10.642926 11.680380 14.477412
10.682265 12.399469 13.004773
     324    154.94896    136.03937            0   0.46187343 
10.297913 9.028393 13.244406
10.497516 8.427679 12.460185
10.257241 9.970000 12.934856
10.256829 11.681249 13.550651
10.637425 11.680267 14.480461
10.666364 12.417801 13.016730
     325    166.54746    144.43389            0   0.49644634 
10.299361 9.025738 13.242611
10.499832 8.427019 12.457088
10.262390 9.968464 12.936013
10.256277 11.682939 13.551581
10.631894 11.679311 14.483407
10.650212 12.436260 13.029450
     326    178.77815    153.45214            0   0.53290371 
10.300823 9.022860 13.240833
10.501907 8.426675 12.453541
10.267748 9.966919 12.937916
10.255728 11.684881 13.552435
10.626343 11.677552 14.486240
10.633823 12.454777 13.042923
     327    191.47915    162.91358            0   0.57076297 
10.302299 9.019767 13.239072
10.503762 8.426642 12.449569
10.273300 9.965355 12.940538
10.255183 11.687067 13.553215
10.620779 11.675034 14.488948
10.617214 12.473285 13.057136
     328    204.46932    172.66319            0    0.6094842 
10.303788 9.016471 13.237325
10.505413 8.426914 12.445195
10.279025 9.963760 12.943846
10.254639 11.689489 13.553926
10.615206 11.671803 14.491518
10.600400 12.491714 13.072073
     329    217.60868    182.53926            0   0.64865015 
10.305292 9.012983 13.235591
10.506879 8.427485 12.440446
10.284897 9.962121 12.947808
10.254096 11.692138 13.554572
10.609621 11.667905 14.493942
10.583401 12.509999 13.087710
     330    230.75145    192.37144            0   0.68782625 
10.306808 9.009314 13.233868
10.508178 8.428348 12.435351
10.290882 9.960425 12.952384
10.253555 11.695005 13.555158
10.604020 11.663390 14.496208
10.566235 12.528073 13.104017
     331    243.74668    201.98974            0   0.72656256 
10.308339 9.005476 13.232154
10.509329 8.429495 12.429939
10.296943 9.958657 12.957533
10.253015 11.698080 13.555689
10.598395 11.658309 14.498308
10.548923 12.545871 13.120961
     332    256.46832    211.23624            0   0.76448334 
10.309884 9.001482 13.230447
10.510347 8.430915 12.424241
10.303038 9.956803 12.963211
[...]
11.202847 11.606659 13.499334
12.243597 11.175357 12.319241
9.204489 9.591616 14.118658
9.674088 9.175678 14.903435
9.866202 9.815234 13.406317
    9921    446.34378    311.98001            0     1.330466 
11.287632 11.163512 12.602483
11.203593 11.610400 13.501887
12.240069 11.160246 12.325079
9.208031 9.590659 14.115306
9.696123 9.188018 14.895720
9.856506 9.830264 13.396021
    9922    450.80013    314.12764            0    1.3437496 
11.283485 11.163409 12.606509
11.204477 11.615114 13.503961
12.236243 11.145062 12.330798
9.211637 9.589729 14.111957
9.717863 9.200120 14.887418
9.846300 9.845024 13.385785
    9923    454.97243    316.25315            0    1.3561864 
11.279337 11.163236 12.610607
11.205516 11.620790 13.505535
12.232105 11.130008 12.336326
9.215302 9.588825 14.108606
9.739318 9.211975 14.878536
9.835615 9.859649 13.375691
    9924     458.8713    318.36056            0    1.3678082 
11.275187 11.162997 12.614778
11.206753 11.627420 13.506589
12.227664 11.115083 12.341664
9.219023 9.587946 14.105252
9.760461 9.223563 14.869105
9.824488 9.874102 13.365775
    9925    462.24768    320.37318            0    1.3778725 
11.271033 11.162697 12.619018
11.208230 11.634988 13.507104
12.222930 11.100284 12.346813
9.222797 9.587093 14.101893
9.781266 9.234869 14.859159
9.812967 9.888340 13.356072
    9926    465.05574    322.03304            0    1.3862428 
11.266873 11.162344 12.623326
11.209998 11.643467 13.507060
12.217908 11.085588 12.351773
9.226622 9.586267 14.098528
9.801683 9.245860 14.848746
9.801126 9.902268 13.346605
    9927    467.11259    323.17184            0    1.3923739 
11.262709 11.161947 12.627696
11.212075 11.652795 13.506448
12.212611 11.070991 12.356564
9.230491 9.585468 14.095156
9.821682 9.256514 14.837910
9.789028 9.915860 13.337412
    9928    468.34115     323.9332            0     1.396036 
11.258541 11.161513 12.632126
11.214498 11.662944 13.505240
12.207045 11.056490 12.361184
9.234400 9.584695 14.091779
9.841242 9.266814 14.826691
9.776729 9.929075 13.328509
    9929    468.79277    324.40554            0    1.3973822 
11.254369 11.161049 12.636615
11.217296 11.673881 13.503407
12.201214 11.042085 12.365628
9.238343 9.583946 14.088396
9.860344 9.276742 14.815128
9.764289 9.941878 13.319914
    9930    467.50078    323.55755            0     1.393531 
11.250205 11.160578 12.641123
11.220338 11.685277 13.501065
12.195187 11.027754 12.370076
9.242311 9.583213 14.085014
9.878930 9.286268 14.803304
9.751801 9.954403 13.311750
    9931    464.43452    321.19696            0    1.3843911 
11.246049 11.160107 12.645648
11.223639 11.697089 13.498202
12.188970 11.013503 12.374526
9.246299 9.582493 14.081634
9.896983 9.295374 14.791263
9.739323 9.966625 13.304029
    9932    460.84432    318.01174            0    1.3736894 
11.241900 11.159650 12.650190
11.227244 11.709288 13.494810
12.182553 10.999292 12.378973
9.250302 9.581799 14.078260
9.914475 9.303992 14.779044
9.726955 9.978297 13.296665
    9933    456.77794    314.13445            0    1.3615683 
11.237761 11.159213 12.654746
11.231170 11.721845 13.490869
12.175935 10.985134 12.383406
9.254313 9.581128 14.074894
9.931406 9.312100 14.766681
9.714753 9.989382 13.289640
    9934    451.80197    309.67745            0    1.3467358 
11.233636 11.158802 12.659313
11.235428 11.734706 13.486375
12.169123 10.971053 12.387809
9.258322 9.580479 14.071539
9.947759 9.319674 14.754223
9.702791 9.999846 13.282946
    9935    445.86541    304.61437            0    1.3290401 
11.229528 11.158423 12.663888
11.240022 11.747831 13.481316
12.162120 10.957077 12.392169
9.262323 9.579848 14.068197
9.963529 9.326696 14.741714
9.691131 10.009700 13.276584
    9936    439.05706    299.17692            0    1.3087457 
11.225442 11.158081 12.668467
11.244956 11.761184 13.475675
12.154934 10.943230 12.396466
9.266307 9.579231 14.064871
9.978710 9.333153 14.729196
9.679826 10.018965 13.270557
    9937    431.39314    293.44047            0     1.285901 
11.221382 11.157780 12.673049
11.250233 11.774733 13.469438
12.147569 10.929542 12.400681
9.270267 9.578622 14.061562
9.993299 9.339036 14.716713
9.668926 10.027669 13.264864
    9938     422.9046    287.49562            0    1.2605983 
11.217351 11.157523 12.677631
11.255858 11.788450 13.462583
12.140032 10.916037 12.404787
9.274194 9.578017 14.058272
10.007293 9.344336 14.704306
9.658475 10.035834 13.259503
    9939     413.6033    281.41176            0    1.2328729 
11.213356 11.157316 12.682212
11.261828 11.802305 13.455090
12.132331 10.902743 12.408757
9.278082 9.577409 14.055003
10.020691 9.349052 14.692018
9.648509 10.043499 13.254476
    9940    403.47049    275.21938            0    1.2026689 
11.209402 11.157163 12.686790
11.268137 11.816265 13.446944
12.124474 10.889688 12.412565
9.281923 9.576790 14.051759
10.033494 9.353188 14.679886
9.639054 10.050706 13.249786
    9941    392.52425    268.95264            0    1.1700402 
11.205495 11.157068 12.691362
11.274772 11.830298 13.438130
12.116475 10.876899 12.416187
9.285709 9.576153 14.048540
10.045706 9.356751 14.667949
9.630128 10.057508 13.245438
    9942    380.04508    261.88587            0    1.1328422 
11.201653 11.157035 12.695905
11.281595 11.844244 13.428744
12.108407 10.864491 12.419652
9.289428 9.575481 14.045354
10.057345 9.359803 14.656245
9.621678 10.064127 13.241529
    9943    366.14428     253.9871            0    1.0914066 
11.197882 11.157066 12.700416
11.288583 11.858075 13.418788
12.100287 10.852481 12.422938
9.293075 9.574766 14.042201
10.068411 9.362352 14.644808
9.613710 10.070618 13.238072
    9944    351.71844    246.06411            0    1.0484059 
11.194188 11.157167 12.704891
11.295716 11.871771 13.408263
12.092128 10.840878 12.426026
9.296644 9.574000 14.039085
10.078908 9.364407 14.633673
9.606233 10.077022 13.235081
    9945    336.90069     238.2334            0     1.004237 
11.190577 11.157343 12.709327
11.302979 11.885316 13.397164
12.083941 10.829687 12.428896
9.300128 9.573176 14.036007
10.088838 9.365975 14.622867
9.599253 10.083368 13.232560
    9946     321.8797     230.6329            0   0.95946226 
11.187053 11.157603 12.713723
11.310372 11.898707 13.385479
12.075725 10.818890 12.431525
9.303520 9.572293 14.032971
10.098206 9.367041 14.612407
9.592786 10.089621 13.230478
    9947    306.79128    223.33376            0   0.91448652 
11.183624 11.157952 12.718078
11.317887 11.911932 13.373202
12.067484 10.808478 12.433897
9.306815 9.571343 14.029981
10.107018 9.367605 14.602315
9.586840 10.095778 13.228823
    9948    291.63621    216.32671            0   0.86931214 
11.180295 11.158397 12.722387
11.325507 11.924971 13.360334
12.059224 10.798446 12.435996
9.310006 9.570319 14.027037
10.115276 9.367687 14.592618
9.581407 10.101880 13.227610
    9949    276.75604    209.66036            0   0.82495719 
11.177069 11.158951 12.726652
11.333258 11.937819 13.346868
12.050921 10.788745 12.437809
9.313088 9.569225 14.024148
10.122980 9.367227 14.583319
9.576545 10.107768 13.226739
    9950    262.27821    203.36862            0   0.78180152 
11.173953 11.159620 12.730867
11.341122 11.950454 13.332811
12.042579 10.779366 12.439328
9.316054 9.568052 14.021314
10.130131 9.366240 14.574443
9.572250 10.113479 13.226221
    9951    248.03121     197.4218            0   0.73933393 
11.170952 11.160412 12.735027
11.349075 11.962849 13.318179
12.034200 10.770299 12.440552
9.318901 9.566794 14.018538
10.136730 9.364746 14.566017
9.568515 10.119055 13.226074
    9952    234.10658     191.8114            0   0.69782726 
11.168074 11.161330 12.739127
11.357090 11.974980 13.302994
12.025789 10.761540 12.441481
9.321624 9.565442 14.015822
10.142778 9.362771 14.558068
9.565326 10.124553 13.226326
    9953    220.59822     186.5309            0    0.6575614 
11.165325 11.162380 12.743159
11.365133 11.986820 13.287287
12.017354 10.753087 12.442118
9.324219 9.563986 14.013164
10.148276 9.360344 14.550621
9.562664 10.130038 13.227016
    9954    207.61427    181.57538            0    0.6188587 
11.162712 11.163565 12.747117
11.373168 11.998343 13.271095
12.008906 10.744941 12.442469
9.326682 9.562418 14.010567
10.153225 9.357498 14.543704
9.560506 10.135577 13.228189
    9955    195.26698    176.95378            0   0.58205378 
11.160241 11.164888 12.750992
11.381155 12.009527 13.254461
12.000456 10.737108 12.442541
9.329011 9.560731 14.008028
10.157624 9.354268 14.537343
9.558829 10.141244 13.229897
    9956    183.67017    172.69657            0    0.5474859 
11.157917 11.166350 12.754778
11.389054 12.020352 13.237433
11.992018 10.729593 12.442338
9.331204 9.558916 14.005546
10.161473 9.350689 14.531565
9.557605 10.147112 13.232199
    9957    172.93641    168.86256            0    0.5154906 
11.155745 11.167951 12.758468
11.396823 12.030803 13.220061
11.983605 10.722409 12.441863
9.333259 9.556967 14.003120
10.164768 9.346796 14.526401
9.556808 10.153254 13.235157
    9958    163.17407    165.56412            0   0.48639092 
11.153729 11.169692 12.762055
11.404424 12.040874 13.202387
11.975231 10.715566 12.441115
9.335177 9.554878 14.000747
10.167509 9.342624 14.521873
9.556405 10.159727 13.238832
    9959    154.48657    162.96365            0   0.46049513 
11.151874 11.171570 12.765538
11.411823 12.050575 13.184437
11.966907 10.709075 12.440085
9.336955 9.552645 13.998425
10.169703 9.338200 14.517987
9.556353 10.166569 13.243269
    9960    147.12802    161.77544            0   0.43856067 
11.150191 11.173575 12.768946
11.418993 12.060005 13.166046
11.958609 10.703009 12.438600
9.338590 9.550269 13.996154
10.171408 9.333590 14.514676
9.556534 10.173712 13.248412
    9961    141.31771    161.99379            0   0.42124125 
11.148682 11.175712 12.772279
11.425919 12.069166 13.147219
11.950315 10.697341 12.436651
9.340082 9.547751 13.993936
10.172621 9.328767 14.511936
9.556955 10.181081 13.254233
    9962    137.04894     163.0043            0   0.40851686 
11.147350 11.177983 12.775538
11.432579 12.078057 13.127975
11.942011 10.692054 12.434235
9.341431 9.545094 13.991768
10.173336 9.323725 14.509773
9.557611 10.188643 13.260734
    9963    134.27087    164.81163            0   0.40023596 
11.146197 11.180391 12.778720
11.438949 12.086674 13.108337
11.933678 10.687124 12.431356
9.342639 9.542298 13.989650
10.173542 9.318461 14.508204
9.558498 10.196382 13.267931
    9964    132.99538    167.41029            0   0.39643398 
11.145224 11.182940 12.781822
11.445014 12.095011 13.088336
11.925296 10.682525 12.428025
9.343708 9.539363 13.987580
10.173221 9.312966 14.507245
9.559620 10.204270 13.275836
    9965    133.24114    170.78952            0   0.39716654 
11.144431 11.185633 12.784837
11.450759 12.103060 13.068017
11.916851 10.678224 12.424277
9.344639 9.536291 13.985556
10.172340 9.307207 14.506932
9.561002 10.212298 13.284485
    9966    135.02781     174.9337            0   0.40249226 
11.143818 11.188475 12.787761
11.456181 12.110812 13.047421
11.908321 10.674187 12.420142
9.345436 9.533083 13.983577
10.170878 9.301174 14.507279
9.562646 10.220432 13.293888
    9967     138.3412    179.77276            0   0.41236883 
11.143382 11.191467 12.790590
11.461279 12.118259 13.026595
11.899682 10.670381 12.415650
9.346105 9.529743 13.981639
10.168820 9.294856 14.508295
9.564552 10.228631 13.304043
    9968    143.13642     185.2457            0   0.42666248 
11.143122 11.194612 12.793322
11.466060 12.125394 13.005581
11.890910 10.666773 12.410833
9.346649 9.526275 13.979741
10.166149 9.288242 14.509986
9.566717 10.236844 13.314940
    9969    149.34258    191.29918            0   0.44516186 
11.143032 11.197910 12.795956
11.470531 12.132216 12.984416
11.881977 10.663332 12.405717
9.347075 9.522685 13.977882
10.162851 9.281323 14.512349
9.569139 10.245015 13.326556
    9970    156.87345    197.89672            0   0.46760997 
11.143110 11.201362 12.798492
11.474699 12.138722 12.963128
11.872852 10.660032 12.400323
9.347388 9.518978 13.976061
10.158913 9.274090 14.515374
9.571811 10.253080 13.338858
    9971    165.54856    205.46932            0   0.49346882 
11.143362 11.204961 12.800956
11.478526 12.144954 12.941588
11.863459 10.656873 12.394558
9.347595 9.515161 13.974275
10.154363 9.266595 14.519014
9.574655 10.260972 13.351773
    9972    175.31281    213.94062            0   0.52257419 
11.143784 11.208708 12.803351
11.482014 12.150908 12.919801
11.853748 10.653821 12.388442
9.347700 9.511240 13.972524
10.149197 9.258814 14.523236
9.577677 10.268599 13.365220
    9973    186.25113    222.88192            0   0.55517925 
11.144377 11.212607 12.805678
11.485154 12.156581 12.897782
11.843679 10.650850 12.381996
9.347706 9.507221 13.970810
10.143390 9.250722 14.528032
9.580899 10.275900 13.379157
    9974    198.23162    232.23538            0    0.5908908 
11.145139 11.216657 12.807936
11.487945 12.161967 12.875559
11.833212 10.647936 12.375257
9.347619 9.503110 13.969135
10.136929 9.242306 14.533380
9.584325 10.282819 13.393528
    9975    211.06636    241.77807            0   0.62914872 
11.146066 11.220859 12.810124
11.490387 12.167057 12.853173
11.822312 10.645055 12.368264
9.347445 9.498911 13.967499
10.129804 9.233557 14.539252
9.587964 10.289303 13.408275
    9976    224.61991    251.37149            0    0.6695493 
11.147155 11.225213 12.812241
11.492484 12.171843 12.830670
11.810946 10.642185 12.361065
9.347188 9.494632 13.965904
10.122004 9.224465 14.545619
9.591828 10.295299 13.423333
    9977    238.74895    260.90357            0   0.71166527 
11.148400 11.229716 12.814284
11.494241 12.176318 12.808102
11.799084 10.639310 12.353707
9.346855 9.490278 13.964351
10.113522 9.215026 14.552448
9.595932 10.300762 13.438636
    9978    253.30694    270.30289            0   0.75505986 
11.149798 11.234367 12.816252
11.495666 12.180480 12.785517
11.786697 10.636416 12.346237
9.346451 9.485856 13.962844
10.104352 9.205238 14.559702
9.600293 10.305649 13.454117
    9979    268.17802    279.57645            0   0.79938773 
11.151342 11.239163 12.818143
11.496765 12.184329 12.762969
11.773764 10.633500 12.338703
9.345982 9.481371 13.961383
10.094479 9.195100 14.567355
9.604935 10.309930 13.469721
    9980    283.19826     288.7914            0   0.84416022 
11.153029 11.244099 12.819958
11.497536 12.187867 12.740489
11.760255 10.630558 12.331138
9.345453 9.476827 13.959969
10.083901 9.184629 14.575368
9.609864 10.313585 13.485392
    9981     298.2542    297.85323            0    0.8890391 
11.154856 11.249171 12.821700
11.497978 12.191101 12.718093
11.746128 10.627587 12.323573
9.344868 9.472231 13.958606
10.072637 9.173842 14.583680
9.615099 10.316556 13.501016
    9982     312.1163    306.33732            0    0.9303594 
11.156820 11.254343 12.823368
11.497879 12.194091 12.695879
11.731504 10.624723 12.316004
9.344240 9.467596 13.957283
10.060668 9.162756 14.592267
9.620576 10.318983 13.516741
    9983    324.56199    314.35755            0   0.96745763 
11.158920 11.259611 12.824966
11.497226 12.196847 12.673847
11.716336 10.621957 12.308455
9.343574 9.462928 13.956001
10.048000 9.151395 14.601084
9.626312 10.320828 13.532484
    9984    336.66155    322.23419            0    1.0035241 
11.161152 11.264970 12.826499
11.496012 12.199379 12.652009
11.700586 10.619281 12.300955
9.342873 9.458233 13.954764
10.034653 9.139787 14.610075
9.632333 10.322044 13.548139
    9985    348.34125    329.84605            0    1.0383391 
11.163507 11.270417 12.827966
11.494268 12.201689 12.630410
11.684223 10.616680 12.293565
9.342141 9.453515 13.953572
10.020625 9.127945 14.619203
9.638687 10.322601 13.563636
    9986    359.47435    337.28792            0    1.0715248 
11.165980 11.275948 12.829366
11.492014 12.203781 12.609078
11.667217 10.614145 12.286340
9.341385 9.448779 13.952426
10.005915 9.115896 14.628437
9.645412 10.322484 13.578921
    9987    369.98846     344.6856            0    1.1028653 
11.168564 11.281558 12.830701
11.489262 12.205661 12.588037
11.649540 10.611669 12.279329
9.340609 9.444026 13.951325
9.990524 9.103670 14.637743
9.652529 10.321690 13.593958
    9988    379.73945    352.12155            0    1.1319312 
11.171256 11.287239 12.831970
11.486007 12.207340 12.567308
11.631177 10.609260 12.272581
9.339819 9.439260 13.950265
9.974453 9.091309 14.647094
9.660023 10.320250 13.608760
    9989    388.75078    359.55752            0    1.1587922 
11.174053 11.292987 12.833175
11.482254 12.208827 12.546905
11.612098 10.606917 12.266144
9.339019 9.434482 13.949247
9.957722 9.078858 14.656452
9.667902 10.318158 13.623282
    9990    397.37517    366.76482            0    1.1844999 
11.176954 11.298801 12.834318
11.478019 12.210127 12.526839
11.592250 10.604643 12.260060
9.338204 9.429693 13.948277
9.940397 9.066379 14.665750
9.676195 10.315359 13.637379
    9991    405.59458    373.75351            0    1.2090004 
11.179957 11.304673 12.835401
11.473297 12.211254 12.507129
11.571611 10.602450 12.254376
9.337377 9.424892 13.947354
9.922512 9.053929 14.674956
9.684896 10.311863 13.651022
    9992     413.0868    380.66341            0    1.2313333 
11.183062 11.310597 12.836422
11.468072 12.212225 12.487802
11.550174 10.600362 12.249145
9.336540 9.420080 13.946476
9.904090 9.041559 14.684046
9.693977 10.307703 13.664227
    9993    419.72021     387.4094            0    1.2511062 
11.186266 11.316562 12.837378
11.462329 12.213059 12.468892
11.527949 10.598406 12.244416
9.335698 9.415258 13.945638
9.885155 9.029320 14.693000
9.703387 10.302927 13.677035
    9994     425.4059    393.82724            0    1.2680542 
11.189567 11.322558 12.838265
11.456052 12.213780 12.450439
11.504963 10.596614 12.240243
9.334855 9.410425 13.944837
9.865733 9.017258 14.701798
9.713061 10.297592 13.689505
    9995    430.04639    399.76362            0    1.2818866 
11.192960 11.328575 12.839079
11.449217 12.214414 12.432482
11.481256 10.595020 12.236682
9.334017 9.405583 13.944067
9.845847 9.005407 14.710416
9.722931 10.291758 13.701707
    9996    432.30626    403.17488            0    1.2886228 
11.196430 11.334565 12.839799
11.441698 12.215084 12.415262
11.457197 10.593789 12.233704
9.333201 9.400744 13.943316
9.825498 8.993786 14.718836
9.732723 10.285665 13.713976
    9997    432.25391    404.03348            0    1.2884668 
11.199969 11.340522 12.840423
11.433521 12.215812 12.398811
11.432827 10.592928 12.231342
9.332414 9.395910 13.942583
9.804703 8.982417 14.727037
9.742401 10.279338 13.726329
    9998    431.25387    404.36306            0    1.2854859 
11.203553 11.346443 12.840949
11.424830 12.216599 12.383166
11.408178 10.592420 12.229657
9.331661 9.391088 13.941866
9.783451 8.971294 14.734998
9.752046 10.272741 13.738732
    9999    429.52441    404.32952            0    1.2803307 
11.207180 11.352325 12.841381
11.415643 12.217454 12.368313
11.383242 10.592261 12.228678
9.330941 9.386280 13.941167
9.761801 8.960458 14.742689
9.761680 10.265845 13.751092
   10000    427.24545    404.14707            0    1.2735375 
Loop time of 67.7747 on 1 procs for 10000 steps with 2 atoms

Performance: 12.748 ns/day, 1.883 hours/ns, 147.548 timesteps/s
100.0% CPU use with 1 MPI tasks x no OpenMP threads

MPI task timing breakdown:
Section |  min time  |  avg time  |  max time  |%varavg| %total
---------------------------------------------------------------
Pair    | 67.457     | 67.457     | 67.457     |   0.0 | 99.53
Neigh   | 0.00020528 | 0.00020528 | 0.00020528 |   0.0 |  0.00
Comm    | 0.011605   | 0.011605   | 0.011605   |   0.0 |  0.02
Output  | 0.29362    | 0.29362    | 0.29362    |   0.0 |  0.43
Modify  | 0.0068505  | 0.0068505  | 0.0068505  |   0.0 |  0.01
Other   |            | 0.005696   |            |       |  0.01

Nlocal:    2 ave 2 max 2 min
Histogram: 1 0 0 0 0 0 0 0 0 0
Nghost:    24 ave 24 max 24 min
Histogram: 1 0 0 0 0 0 0 0 0 0
Neighs:    1 ave 1 max 1 min
Histogram: 1 0 0 0 0 0 0 0 0 0

Total # of neighbors = 1
Ave neighs/atom = 0.5
Neighbor list builds = 73
Dangerous builds = 0
Total wall time: 0:02:40
