ITEM: TIMESTEP
0
ITEM: NUMBER OF ENTRIES
6
ITEM: BOX BOUNDS pp pp pp
0 18.6206
0 18.6206
0 18.6206
ITEM: ENTRIES index c_2[1] c_2[2] c_2[3] c_2[4] 
1 1 9.8 9.05 13.59 
2 1 10.34 8.76 14.39 
3 1 10.1 9.95 13.3 
4 1 10.72 11.66 13.18 
5 1 10.55 12.49 12.64 
6 1 11.62 11.29 12.96 
ITEM: TIMESTEP
1
ITEM: NUMBER OF ENTRIES
6
ITEM: BOX BOUNDS pp pp pp
0 18.6206
0 18.6206
0 18.6206
ITEM: ENTRIES index c_2[1] c_2[2] c_2[3] c_2[4] 
1 1 9.80097 9.04055 13.5868 
2 1 10.3235 8.77227 14.4058 
3 1 9.97989 9.99433 13.3809 
4 1 10.7284 11.6622 13.177 
5 1 10.5059 12.483 12.642 
6 1 11.6522 11.3549 12.9592 
ITEM: TIMESTEP
2
ITEM: NUMBER OF ENTRIES
6
ITEM: BOX BOUNDS pp pp pp
0 18.6206
0 18.6206
0 18.6206
ITEM: ENTRIES index c_2[1] c_2[2] c_2[3] c_2[4] 
1 1 9.80251 9.02369 13.5827 
2 1 10.2593 8.77214 14.4452 
3 1 9.78992 10.0116 13.4938 
4 1 10.746 11.6719 13.1731 
5 1 10.4145 12.4602 12.6457 
6 1 11.6933 11.4748 12.9301 
ITEM: TIMESTEP
3
ITEM: NUMBER OF ENTRIES
6
ITEM: BOX BOUNDS pp pp pp
0 18.6206
0 18.6206
0 18.6206
ITEM: ENTRIES index c_2[1] c_2[2] c_2[3] c_2[4] 
1 1 9.80108 9.00321 13.5827 
2 1 10.1474 8.7356 14.4906 
3 1 9.72186 9.99111 13.5396 
4 1 10.7634 11.6923 13.1715 
5 1 10.3326 12.4343 12.6487 
6 1 11.7021 11.5586 12.8611 
ITEM: TIMESTEP
4
ITEM: NUMBER OF ENTRIES
6
ITEM: BOX BOUNDS pp pp pp
0 18.6206
0 18.6206
0 18.6206
ITEM: ENTRIES index c_2[1] c_2[2] c_2[3] c_2[4] 
1 1 9.79022 8.97478 13.5877 
2 1 10.0237 8.70272 14.5296 
3 1 9.88861 9.95762 13.4958 
4 1 10.7764 11.7245 13.1724 
5 1 10.2804 12.4241 12.649 
6 1 11.6781 11.5763 12.7721 
ITEM: TIMESTEP
5
ITEM: NUMBER OF ENTRIES
6
ITEM: BOX BOUNDS pp pp pp
0 18.6206
0 18.6206
0 18.6206
ITEM: ENTRIES index c_2[1] c_2[2] c_2[3] c_2[4] 
1 1 9.7751 8.94892 13.5931 
2 1 9.89275 8.69916 14.5624 
3 1 10.1874 9.83636 13.4302 
4 1 10.7871 11.7601 13.1748 
5 1 10.2309 12.4134 12.6521 
6 1 11.6283 11.5566 12.6784 
ITEM: TIMESTEP
6
ITEM: NUMBER OF ENTRIES
6
ITEM: BOX BOUNDS pp pp pp
0 18.6206
0 18.6206
0 18.6206
ITEM: ENTRIES index c_2[1] c_2[2] c_2[3] c_2[4] 
1 1 9.76754 8.92248 13.5958 
2 1 9.75083 8.7253 14.584 
3 1 10.2892 9.75077 13.435 
4 1 10.8051 11.7902 13.174 
5 1 10.141 12.3622 12.6828 
6 1 11.5939 11.6087 12.5909 
ITEM: TIMESTEP
7
ITEM: NUMBER OF ENTRIES
6
ITEM: BOX BOUNDS pp pp pp
0 18.6206
0 18.6206
0 18.6206
ITEM: ENTRIES index c_2[1] c_2[2] c_2[3] c_2[4] 
1 1 9.7689 8.89382 13.5996 
2 1 9.58476 8.75129 14.5802 
3 1 10.1841 9.78536 13.4696 
4 1 10.8289 11.8126 13.1693 
5 1 10.0334 12.2602 12.7495 
6 1 11.5725 11.7505 12.5072 
ITEM: TIMESTEP
8
ITEM: NUMBER OF ENTRIES
6
ITEM: BOX BOUNDS pp pp pp
0 18.6206
0 18.6206
0 18.6206
ITEM: ENTRIES index c_2[1] c_2[2] c_2[3] c_2[4] 
1 1 9.77509 8.87341 13.6072 
2 1 9.41494 8.74259 14.5393 
3 1 10.0182 9.82671 13.4798 
4 1 10.8507 11.8267 13.1625 
5 1 9.9606 12.1532 12.8299 
6 1 11.5376 11.9238 12.4456 
ITEM: TIMESTEP
9
ITEM: NUMBER OF ENTRIES
6
ITEM: BOX BOUNDS pp pp pp
0 18.6206
0 18.6206
0 18.6206
ITEM: ENTRIES index c_2[1] c_2[2] c_2[3] c_2[4] 
1 1 9.77486 8.85946 13.6139 
2 1 9.27608 8.73235 14.4804 
3 1 10.0463 9.80971 13.5275 
4 1 10.8616 11.8351 13.1535 
5 1 9.93687 12.1367 12.902 
6 1 11.5022 12.0571 12.4216 
ITEM: TIMESTEP
10
ITEM: NUMBER OF ENTRIES
6
ITEM: BOX BOUNDS pp pp pp
0 18.6206
0 18.6206
0 18.6206
ITEM: ENTRIES index c_2[1] c_2[2] c_2[3] c_2[4] 
1 1 9.77033 8.84987 13.6161 
2 1 9.17594 8.76761 14.4258 
3 1 10.2264 9.73068 13.6316 
4 1 10.8615 11.8384 13.1439 
5 1 9.94313 12.2046 12.9653 
6 1 11.4894 12.1312 12.4261 
