ITEM: TIMESTEP
0
ITEM: NUMBER OF ATOMS
6
ITEM: BOX BOUNDS pp pp pp
0 18.6206
0 18.6206
0 18.6206
ITEM: ATOMS id type xs ys zs
1 1 9.8 9.05 13.59 
2 1 10.34 8.76 14.39 
3 1 10.1 9.95 13.3 
4 1 10.72 11.66 13.18 
5 1 10.55 12.49 12.64 
6 1 11.62 11.29 12.96 
ITEM: TIMESTEP
1
ITEM: NUMBER OF ATOMS
6
ITEM: BOX BOUNDS pp pp pp
0 18.6206
0 18.6206
0 18.6206
ITEM: ATOMS id type xs ys zs
1 1 9.80293 9.05245 13.5876 
2 1 10.3428 8.76271 14.3878 
3 1 10.1018 9.9531 13.2984 
4 1 10.7172 11.6575 13.1824 
5 1 10.5466 12.4874 12.6424 
6 1 11.6174 11.2881 12.9624 
ITEM: TIMESTEP
2
ITEM: NUMBER OF ATOMS
6
ITEM: BOX BOUNDS pp pp pp
0 18.6206
0 18.6206
0 18.6206
ITEM: ATOMS id type xs ys zs
1 1 9.80587 9.05468 13.5851 
2 1 10.3453 8.76573 14.3859 
3 1 10.1012 9.95729 13.2985 
4 1 10.7145 11.655 13.1847 
5 1 10.5424 12.4847 12.6448 
6 1 11.6155 11.2875 12.9647 
ITEM: TIMESTEP
3
ITEM: NUMBER OF ATOMS
6
ITEM: BOX BOUNDS pp pp pp
0 18.6206
0 18.6206
0 18.6206
ITEM: ATOMS id type xs ys zs
1 1 9.80882 9.0567 13.5826 
2 1 10.3475 8.76905 14.3843 
3 1 10.0984 9.96252 13.3002 
4 1 10.712 11.6526 13.1869 
5 1 10.5372 12.4818 12.6473 
6 1 11.6143 11.2882 12.9671 
ITEM: TIMESTEP
4
ITEM: NUMBER OF ATOMS
6
ITEM: BOX BOUNDS pp pp pp
0 18.6206
0 18.6206
0 18.6206
ITEM: ATOMS id type xs ys zs
1 1 9.81177 9.0585 13.5799 
2 1 10.3493 8.77264 14.3831 
3 1 10.0931 9.96872 13.3035 
4 1 10.7097 11.6502 13.1891 
5 1 10.5311 12.4789 12.6498 
6 1 11.6137 11.2901 12.9694 
ITEM: TIMESTEP
5
ITEM: NUMBER OF ATOMS
6
ITEM: BOX BOUNDS pp pp pp
0 18.6206
0 18.6206
0 18.6206
ITEM: ATOMS id type xs ys zs
1 1 9.81474 9.06008 13.5773 
2 1 10.3508 8.77646 14.3822 
3 1 10.0855 9.97577 13.3084 
4 1 10.7075 11.6479 13.1912 
5 1 10.5242 12.4758 12.6523 
6 1 11.6138 11.2934 12.9716 
ITEM: TIMESTEP
6
ITEM: NUMBER OF ATOMS
6
ITEM: BOX BOUNDS pp pp pp
0 18.6206
0 18.6206
0 18.6206
ITEM: ATOMS id type xs ys zs
1 1 9.81773 9.06146 13.5746 
2 1 10.3519 8.78048 14.3817 
3 1 10.0756 9.9835 13.3148 
4 1 10.7055 11.6457 13.1932 
5 1 10.5165 12.4726 12.6548 
6 1 11.6145 11.2979 12.9738 
ITEM: TIMESTEP
7
ITEM: NUMBER OF ATOMS
6
ITEM: BOX BOUNDS pp pp pp
0 18.6206
0 18.6206
0 18.6206
ITEM: ATOMS id type xs ys zs
1 1 9.82073 9.06266 13.5718 
2 1 10.3525 8.78462 14.3815 
3 1 10.0634 9.99173 13.3227 
4 1 10.7037 11.6436 13.1952 
5 1 10.5079 12.4692 12.6573 
6 1 11.6156 11.3036 12.9759 
ITEM: TIMESTEP
8
ITEM: NUMBER OF ATOMS
6
ITEM: BOX BOUNDS pp pp pp
0 18.6206
0 18.6206
0 18.6206
ITEM: ATOMS id type xs ys zs
1 1 9.82376 9.06368 13.5689 
2 1 10.3526 8.78882 14.3817 
3 1 10.049 10.0002 13.3318 
4 1 10.7021 11.6416 13.1972 
5 1 10.4985 12.4657 12.6598 
6 1 11.6172 11.3103 12.9777 
ITEM: TIMESTEP
9
ITEM: NUMBER OF ATOMS
6
ITEM: BOX BOUNDS pp pp pp
0 18.6206
0 18.6206
0 18.6206
ITEM: ATOMS id type xs ys zs
1 1 9.82681 9.06453 13.5661 
2 1 10.3522 8.79298 14.3821 
3 1 10.0327 10.0087 13.3421 
4 1 10.7006 11.6397 13.1991 
5 1 10.4885 12.462 12.6623 
6 1 11.6191 11.3181 12.9794 
ITEM: TIMESTEP
10
ITEM: NUMBER OF ATOMS
6
ITEM: BOX BOUNDS pp pp pp
0 18.6206
0 18.6206
0 18.6206
ITEM: ATOMS id type xs ys zs
1 1 9.82988 9.06524 13.5632 
2 1 10.3512 8.79701 14.383 
3 1 10.0149 10.017 13.3532 
4 1 10.6992 11.6379 13.201 
5 1 10.4779 12.4582 12.6648 
6 1 11.6212 11.3268 12.9809 
ITEM: TIMESTEP
11
ITEM: NUMBER OF ATOMS
6
ITEM: BOX BOUNDS pp pp pp
0 18.6206
0 18.6206
0 18.6206
ITEM: ATOMS id type xs ys zs
1 1 9.83295 9.06582 13.5603 
2 1 10.3496 8.80082 14.384 
3 1 9.99563 10.0247 13.3649 
4 1 10.698 11.6362 13.2029 
5 1 10.4667 12.4542 12.6674 
6 1 11.6235 11.3362 12.9821 
ITEM: TIMESTEP
12
ITEM: NUMBER OF ATOMS
6
ITEM: BOX BOUNDS pp pp pp
0 18.6206
0 18.6206
0 18.6206
ITEM: ATOMS id type xs ys zs
1 1 9.83602 9.06628 13.5574 
2 1 10.3474 8.80432 14.3854 
3 1 9.97539 10.0317 13.377 
4 1 10.697 11.6347 13.2047 
5 1 10.4551 12.4502 12.67 
6 1 11.6259 11.3463 12.983 
ITEM: TIMESTEP
13
ITEM: NUMBER OF ATOMS
6
ITEM: BOX BOUNDS pp pp pp
0 18.6206
0 18.6206
0 18.6206
ITEM: ATOMS id type xs ys zs
1 1 9.83909 9.06662 13.5545 
2 1 10.3447 8.80742 14.3869 
3 1 9.95447 10.0379 13.3892 
4 1 10.696 11.6334 13.2065 
5 1 10.4431 12.446 12.6725 
6 1 11.6283 11.357 12.9836 
ITEM: TIMESTEP
14
ITEM: NUMBER OF ATOMS
6
ITEM: BOX BOUNDS pp pp pp
0 18.6206
0 18.6206
0 18.6206
ITEM: ATOMS id type xs ys zs
1 1 9.84214 9.06685 13.5516 
2 1 10.3413 8.81006 14.3887 
3 1 9.93319 10.0432 13.4014 
4 1 10.6951 11.6323 13.2083 
5 1 10.4309 12.4417 12.6751 
6 1 11.6306 11.368 12.9838 
ITEM: TIMESTEP
15
ITEM: NUMBER OF ATOMS
6
ITEM: BOX BOUNDS pp pp pp
0 18.6206
0 18.6206
0 18.6206
ITEM: ATOMS id type xs ys zs
1 1 9.84517 9.06698 13.5488 
2 1 10.3372 8.81217 14.3906 
3 1 9.91183 10.0475 13.4134 
4 1 10.6943 11.6313 13.2102 
5 1 10.4185 12.4374 12.6777 
6 1 11.6327 11.3793 12.9835 
ITEM: TIMESTEP
16
ITEM: NUMBER OF ATOMS
6
ITEM: BOX BOUNDS pp pp pp
0 18.6206
0 18.6206
0 18.6206
ITEM: ATOMS id type xs ys zs
1 1 9.84817 9.067 13.546 
2 1 10.3325 8.8137 14.3927 
3 1 9.89065 10.0507 13.4251 
4 1 10.6936 11.6305 13.212 
5 1 10.406 12.433 12.6803 
6 1 11.6346 11.3907 12.9829 
ITEM: TIMESTEP
17
ITEM: NUMBER OF ATOMS
6
ITEM: BOX BOUNDS pp pp pp
0 18.6206
0 18.6206
0 18.6206
ITEM: ATOMS id type xs ys zs
1 1 9.85115 9.06692 13.5433 
2 1 10.3272 8.81461 14.395 
3 1 9.86988 10.053 13.4363 
4 1 10.693 11.63 13.2138 
5 1 10.3934 12.4286 12.6829 
6 1 11.6362 11.4021 12.9817 
ITEM: TIMESTEP
18
ITEM: NUMBER OF ATOMS
6
ITEM: BOX BOUNDS pp pp pp
0 18.6206
0 18.6206
0 18.6206
ITEM: ATOMS id type xs ys zs
1 1 9.85409 9.06673 13.5406 
2 1 10.3212 8.81487 14.3973 
3 1 9.84974 10.0543 13.4469 
4 1 10.6924 11.6296 13.2156 
5 1 10.3809 12.4243 12.6856 
6 1 11.6375 11.4135 12.9801 
ITEM: TIMESTEP
19
ITEM: NUMBER OF ATOMS
6
ITEM: BOX BOUNDS pp pp pp
0 18.6206
0 18.6206
0 18.6206
ITEM: ATOMS id type xs ys zs
1 1 9.857 9.06643 13.5379 
2 1 10.3146 8.81445 14.3998 
3 1 9.8304 10.0548 13.457 
4 1 10.6919 11.6295 13.2174 
5 1 10.3685 12.4199 12.6882 
6 1 11.6384 11.4246 12.9779 
ITEM: TIMESTEP
20
ITEM: NUMBER OF ATOMS
6
ITEM: BOX BOUNDS pp pp pp
0 18.6206
0 18.6206
0 18.6206
ITEM: ATOMS id type xs ys zs
1 1 9.85986 9.06602 13.5354 
2 1 10.3073 8.81335 14.4024 
3 1 9.81202 10.0545 13.4663 
4 1 10.6914 11.6296 13.2192 
5 1 10.3562 12.4156 12.6908 
6 1 11.639 11.4354 12.9753 
ITEM: TIMESTEP
21
ITEM: NUMBER OF ATOMS
6
ITEM: BOX BOUNDS pp pp pp
0 18.6206
0 18.6206
0 18.6206
ITEM: ATOMS id type xs ys zs
1 1 9.86268 9.06547 13.5328 
2 1 10.2993 8.81157 14.4049 
3 1 9.79474 10.0535 13.475 
4 1 10.6909 11.6299 13.2211 
5 1 10.3442 12.4114 12.6933 
6 1 11.6393 11.4458 12.9721 
ITEM: TIMESTEP
22
ITEM: NUMBER OF ATOMS
6
ITEM: BOX BOUNDS pp pp pp
0 18.6206
0 18.6206
0 18.6206
ITEM: ATOMS id type xs ys zs
1 1 9.86545 9.0648 13.5304 
2 1 10.2908 8.80912 14.4076 
3 1 9.77873 10.0519 13.4828 
4 1 10.6904 11.6305 13.2229 
5 1 10.3324 12.4073 12.6959 
6 1 11.6391 11.4557 12.9685 
ITEM: TIMESTEP
23
ITEM: NUMBER OF ATOMS
6
ITEM: BOX BOUNDS pp pp pp
0 18.6206
0 18.6206
0 18.6206
ITEM: ATOMS id type xs ys zs
1 1 9.86812 9.06395 13.5281 
2 1 10.2819 8.80604 14.4101 
3 1 9.7646 10.0498 13.4896 
4 1 10.6899 11.6313 13.2248 
5 1 10.321 12.4035 12.6985 
6 1 11.6385 11.4651 12.9644 
ITEM: TIMESTEP
24
ITEM: NUMBER OF ATOMS
6
ITEM: BOX BOUNDS pp pp pp
0 18.6206
0 18.6206
0 18.6206
ITEM: ATOMS id type xs ys zs
1 1 9.87069 9.06291 13.5258 
2 1 10.2725 8.80237 14.4126 
3 1 9.75252 10.0474 13.4953 
4 1 10.6895 11.6324 13.2266 
5 1 10.31 12.4 12.7011 
6 1 11.6376 11.4738 12.9599 
ITEM: TIMESTEP
25
ITEM: NUMBER OF ATOMS
6
ITEM: BOX BOUNDS pp pp pp
0 18.6206
0 18.6206
0 18.6206
ITEM: ATOMS id type xs ys zs
1 1 9.87317 9.06167 13.5236 
2 1 10.2628 8.79817 14.415 
3 1 9.74266 10.0448 13.5 
4 1 10.689 11.6337 13.2285 
5 1 10.2995 12.3968 12.7037 
6 1 11.6363 11.4819 12.955 
ITEM: TIMESTEP
26
ITEM: NUMBER OF ATOMS
6
ITEM: BOX BOUNDS pp pp pp
0 18.6206
0 18.6206
0 18.6206
ITEM: ATOMS id type xs ys zs
1 1 9.87553 9.06023 13.5216 
2 1 10.2527 8.79349 14.4173 
3 1 9.73513 10.0421 13.5035 
4 1 10.6885 11.6354 13.2304 
5 1 10.2894 12.394 12.7063 
6 1 11.6346 11.4893 12.9498 
ITEM: TIMESTEP
27
ITEM: NUMBER OF ATOMS
6
ITEM: BOX BOUNDS pp pp pp
0 18.6206
0 18.6206
0 18.6206
ITEM: ATOMS id type xs ys zs
1 1 9.87778 9.05857 13.5196 
2 1 10.2423 8.78845 14.4195 
3 1 9.72995 10.0394 13.506 
4 1 10.6879 11.6372 13.2323 
5 1 10.2798 12.3915 12.7089 
6 1 11.6325 11.4959 12.9441 
ITEM: TIMESTEP
28
ITEM: NUMBER OF ATOMS
6
ITEM: BOX BOUNDS pp pp pp
0 18.6206
0 18.6206
0 18.6206
ITEM: ATOMS id type xs ys zs
1 1 9.87991 9.05668 13.5176 
2 1 10.2316 8.78311 14.4216 
3 1 9.7272 10.0368 13.5075 
4 1 10.6874 11.6394 13.2342 
5 1 10.2707 12.3895 12.7115 
6 1 11.6301 11.5017 12.9381 
ITEM: TIMESTEP
29
ITEM: NUMBER OF ATOMS
6
ITEM: BOX BOUNDS pp pp pp
0 18.6206
0 18.6206
0 18.6206
ITEM: ATOMS id type xs ys zs
1 1 9.88192 9.05456 13.5158 
2 1 10.2207 8.77753 14.4236 
3 1 9.72696 10.0344 13.508 
4 1 10.6868 11.6418 13.2361 
5 1 10.262 12.3878 12.714 
6 1 11.6272 11.5068 12.9318 
ITEM: TIMESTEP
30
ITEM: NUMBER OF ATOMS
6
ITEM: BOX BOUNDS pp pp pp
0 18.6206
0 18.6206
0 18.6206
ITEM: ATOMS id type xs ys zs
1 1 9.88382 9.05222 13.514 
2 1 10.2094 8.77176 14.4256 
3 1 9.72928 10.0321 13.5076 
4 1 10.6862 11.6445 13.238 
5 1 10.2539 12.3865 12.7165 
6 1 11.624 11.511 12.9251 
ITEM: TIMESTEP
31
ITEM: NUMBER OF ATOMS
6
ITEM: BOX BOUNDS pp pp pp
0 18.6206
0 18.6206
0 18.6206
ITEM: ATOMS id type xs ys zs
1 1 9.88559 9.04964 13.5123 
2 1 10.198 8.76585 14.4275 
3 1 9.73419 10.03 13.5063 
4 1 10.6855 11.6474 13.24 
5 1 10.2461 12.3856 12.719 
6 1 11.6204 11.5144 12.9182 
ITEM: TIMESTEP
32
ITEM: NUMBER OF ATOMS
6
ITEM: BOX BOUNDS pp pp pp
0 18.6206
0 18.6206
0 18.6206
ITEM: ATOMS id type xs ys zs
1 1 9.88725 9.04684 13.5107 
2 1 10.1862 8.75985 14.4293 
3 1 9.74172 10.0281 13.5043 
4 1 10.6848 11.6506 13.242 
5 1 10.2389 12.3851 12.7214 
6 1 11.6164 11.5169 12.9109 
ITEM: TIMESTEP
33
ITEM: NUMBER OF ATOMS
6
ITEM: BOX BOUNDS pp pp pp
0 18.6206
0 18.6206
0 18.6206
ITEM: ATOMS id type xs ys zs
1 1 9.88879 9.04382 13.5091 
2 1 10.1743 8.75381 14.4311 
3 1 9.75187 10.0263 13.5015 
4 1 10.6841 11.654 13.2439 
5 1 10.2321 12.3851 12.7238 
6 1 11.612 11.5186 12.9034 
ITEM: TIMESTEP
34
ITEM: NUMBER OF ATOMS
6
ITEM: BOX BOUNDS pp pp pp
0 18.6206
0 18.6206
0 18.6206
ITEM: ATOMS id type xs ys zs
1 1 9.89021 9.04059 13.5075 
2 1 10.1621 8.74777 14.4328 
3 1 9.76461 10.0246 13.4981 
4 1 10.6834 11.6576 13.2459 
5 1 10.2257 12.3854 12.7261 
6 1 11.6072 11.5194 12.8956 
ITEM: TIMESTEP
35
ITEM: NUMBER OF ATOMS
6
ITEM: BOX BOUNDS pp pp pp
0 18.6206
0 18.6206
0 18.6206
ITEM: ATOMS id type xs ys zs
1 1 9.89152 9.03716 13.506 
2 1 10.1496 8.74177 14.4344 
3 1 9.77991 10.0228 13.4941 
4 1 10.6826 11.6615 13.2479 
5 1 10.2197 12.3862 12.7284 
6 1 11.602 11.5195 12.8877 
ITEM: TIMESTEP
36
ITEM: NUMBER OF ATOMS
6
ITEM: BOX BOUNDS pp pp pp
0 18.6206
0 18.6206
0 18.6206
ITEM: ATOMS id type xs ys zs
1 1 9.89271 9.03354 13.5046 
2 1 10.1369 8.73586 14.4359 
3 1 9.79769 10.0209 13.4897 
4 1 10.6818 11.6656 13.25 
5 1 10.2141 12.3874 12.7306 
6 1 11.5964 11.5188 12.8795 
ITEM: TIMESTEP
37
ITEM: NUMBER OF ATOMS
6
ITEM: BOX BOUNDS pp pp pp
0 18.6206
0 18.6206
0 18.6206
ITEM: ATOMS id type xs ys zs
1 1 9.8938 9.02975 13.5031 
2 1 10.124 8.73006 14.4374 
3 1 9.81785 10.0187 13.4848 
4 1 10.6809 11.6699 13.252 
5 1 10.2088 12.3889 12.7328 
6 1 11.5904 11.5174 12.8712 
ITEM: TIMESTEP
38
ITEM: NUMBER OF ATOMS
6
ITEM: BOX BOUNDS pp pp pp
0 18.6206
0 18.6206
0 18.6206
ITEM: ATOMS id type xs ys zs
1 1 9.89481 9.02582 13.5017 
2 1 10.1109 8.72445 14.4388 
3 1 9.8397 10.0161 13.4797 
4 1 10.6801 11.6743 13.254 
5 1 10.2038 12.3906 12.735 
6 1 11.584 11.5154 12.8627 
ITEM: TIMESTEP
39
ITEM: NUMBER OF ATOMS
6
ITEM: BOX BOUNDS pp pp pp
0 18.6206
0 18.6206
0 18.6206
ITEM: ATOMS id type xs ys zs
1 1 9.89575 9.02179 13.5003 
2 1 10.0976 8.71906 14.4402 
3 1 9.86312 10.0129 13.4744 
4 1 10.6793 11.6789 13.2561 
5 1 10.1989 12.3926 12.7371 
6 1 11.5771 11.5128 12.8542 
ITEM: TIMESTEP
40
ITEM: NUMBER OF ATOMS
6
ITEM: BOX BOUNDS pp pp pp
0 18.6206
0 18.6206
0 18.6206
ITEM: ATOMS id type xs ys zs
1 1 9.89662 9.01765 13.499 
2 1 10.0842 8.71391 14.4414 
3 1 9.888 10.0092 13.469 
4 1 10.6784 11.6837 13.2581 
5 1 10.1942 12.3948 12.7391 
6 1 11.57 11.5097 12.8456 
ITEM: TIMESTEP
41
ITEM: NUMBER OF ATOMS
6
ITEM: BOX BOUNDS pp pp pp
0 18.6206
0 18.6206
0 18.6206
ITEM: ATOMS id type xs ys zs
1 1 9.89743 9.01343 13.4976 
2 1 10.0705 8.70901 14.4426 
3 1 9.91421 10.0047 13.4636 
4 1 10.6776 11.6886 13.2602 
5 1 10.1896 12.397 12.7412 
6 1 11.5624 11.5062 12.8369 
ITEM: TIMESTEP
42
ITEM: NUMBER OF ATOMS
6
ITEM: BOX BOUNDS pp pp pp
0 18.6206
0 18.6206
0 18.6206
ITEM: ATOMS id type xs ys zs
1 1 9.89818 9.00913 13.4962 
2 1 10.0567 8.70437 14.4437 
3 1 9.94162 9.99947 13.4582 
4 1 10.6768 11.6936 13.2622 
5 1 10.185 12.3994 12.7432 
6 1 11.5545 11.5024 12.8282 
ITEM: TIMESTEP
43
ITEM: NUMBER OF ATOMS
6
ITEM: BOX BOUNDS pp pp pp
0 18.6206
0 18.6206
0 18.6206
ITEM: ATOMS id type xs ys zs
1 1 9.89888 9.00478 13.4949 
2 1 10.0427 8.70001 14.4447 
3 1 9.97004 9.99334 13.4528 
4 1 10.676 11.6987 13.2642 
5 1 10.1804 12.4019 12.7453 
6 1 11.5463 11.4984 12.8195 
ITEM: TIMESTEP
44
ITEM: NUMBER OF ATOMS
6
ITEM: BOX BOUNDS pp pp pp
0 18.6206
0 18.6206
0 18.6206
ITEM: ATOMS id type xs ys zs
1 1 9.89955 9.00037 13.4935 
2 1 10.0285 8.69592 14.4456 
3 1 9.99927 9.9863 13.4477 
4 1 10.6752 11.7039 13.2663 
5 1 10.1757 12.4044 12.7474 
6 1 11.5377 11.4944 12.8109 
ITEM: TIMESTEP
45
ITEM: NUMBER OF ATOMS
6
ITEM: BOX BOUNDS pp pp pp
0 18.6206
0 18.6206
0 18.6206
ITEM: ATOMS id type xs ys zs
1 1 9.90017 8.99592 13.4922 
2 1 10.014 8.69211 14.4464 
3 1 10.029 9.97829 13.4427 
4 1 10.6744 11.7092 13.2683 
5 1 10.1709 12.407 12.7497 
6 1 11.529 11.4904 12.8023 
ITEM: TIMESTEP
46
ITEM: NUMBER OF ATOMS
6
ITEM: BOX BOUNDS pp pp pp
0 18.6206
0 18.6206
0 18.6206
ITEM: ATOMS id type xs ys zs
1 1 9.90078 8.99144 13.4908 
2 1 9.99941 8.68857 14.447 
3 1 10.0591 9.96933 13.4381 
4 1 10.6737 11.7145 13.2703 
5 1 10.1659 12.4095 12.752 
6 1 11.5201 11.4866 12.7938 
ITEM: TIMESTEP
47
ITEM: NUMBER OF ATOMS
6
ITEM: BOX BOUNDS pp pp pp
0 18.6206
0 18.6206
0 18.6206
ITEM: ATOMS id type xs ys zs
1 1 9.90138 8.98693 13.4895 
2 1 9.98457 8.6853 14.4475 
3 1 10.089 9.95947 13.4339 
4 1 10.6731 11.7199 13.2722 
5 1 10.1607 12.4119 12.7546 
6 1 11.5111 11.4832 12.7855 
ITEM: TIMESTEP
48
ITEM: NUMBER OF ATOMS
6
ITEM: BOX BOUNDS pp pp pp
0 18.6206
0 18.6206
0 18.6206
ITEM: ATOMS id type xs ys zs
1 1 9.90198 8.9824 13.4881 
2 1 9.96954 8.68229 14.4479 
3 1 10.1183 9.94881 13.4302 
4 1 10.6725 11.7254 13.2741 
5 1 10.1551 12.4142 12.7573 
6 1 11.5021 11.4802 12.7772 
ITEM: TIMESTEP
49
ITEM: NUMBER OF ATOMS
6
ITEM: BOX BOUNDS pp pp pp
0 18.6206
0 18.6206
0 18.6206
ITEM: ATOMS id type xs ys zs
1 1 9.90261 8.97783 13.4868 
2 1 9.95431 8.67953 14.448 
3 1 10.1465 9.93755 13.4271 
4 1 10.672 11.7308 13.276 
5 1 10.1491 12.4164 12.7603 
6 1 11.4932 11.4779 12.7691 
ITEM: TIMESTEP
50
ITEM: NUMBER OF ATOMS
6
ITEM: BOX BOUNDS pp pp pp
0 18.6206
0 18.6206
0 18.6206
ITEM: ATOMS id type xs ys zs
1 1 9.90329 8.97323 13.4854 
2 1 9.93888 8.67699 14.448 
3 1 10.1732 9.92591 13.4247 
4 1 10.6716 11.7363 13.2778 
5 1 10.1427 12.4183 12.7635 
6 1 11.4844 11.4764 12.761 
ITEM: TIMESTEP
51
ITEM: NUMBER OF ATOMS
6
ITEM: BOX BOUNDS pp pp pp
0 18.6206
0 18.6206
0 18.6206
ITEM: ATOMS id type xs ys zs
1 1 9.90403 8.96859 13.484 
2 1 9.92327 8.67465 14.4478 
3 1 10.1976 9.91421 13.4231 
4 1 10.6713 11.7418 13.2796 
5 1 10.1358 12.4199 12.767 
6 1 11.4759 11.4758 12.7531 
ITEM: TIMESTEP
52
ITEM: NUMBER OF ATOMS
6
ITEM: BOX BOUNDS pp pp pp
0 18.6206
0 18.6206
0 18.6206
ITEM: ATOMS id type xs ys zs
1 1 9.90483 8.9639 13.4826 
2 1 9.90749 8.67246 14.4474 
3 1 10.2198 9.90266 13.4222 
4 1 10.671 11.7472 13.2813 
5 1 10.1283 12.4211 12.7708 
6 1 11.4677 11.4763 12.7454 
ITEM: TIMESTEP
53
ITEM: NUMBER OF ATOMS
6
ITEM: BOX BOUNDS pp pp pp
0 18.6206
0 18.6206
0 18.6206
ITEM: ATOMS id type xs ys zs
1 1 9.90571 8.95915 13.4812 
2 1 9.89152 8.67038 14.4467 
3 1 10.2394 9.89149 13.4222 
4 1 10.6709 11.7526 13.283 
5 1 10.1202 12.422 12.775 
6 1 11.4599 11.478 12.7377 
ITEM: TIMESTEP
54
ITEM: NUMBER OF ATOMS
6
ITEM: BOX BOUNDS pp pp pp
0 18.6206
0 18.6206
0 18.6206
ITEM: ATOMS id type xs ys zs
1 1 9.90665 8.95432 13.4798 
2 1 9.87536 8.66836 14.4457 
3 1 10.2564 9.88088 13.4228 
4 1 10.6709 11.758 13.2846 
5 1 10.1116 12.4225 12.7796 
6 1 11.4526 11.4809 12.7301 
ITEM: TIMESTEP
55
ITEM: NUMBER OF ATOMS
6
ITEM: BOX BOUNDS pp pp pp
0 18.6206
0 18.6206
0 18.6206
ITEM: ATOMS id type xs ys zs
1 1 9.90767 8.9494 13.4785 
2 1 9.859 8.66634 14.4445 
3 1 10.2707 9.87101 13.4242 
4 1 10.671 11.7634 13.2861 
5 1 10.1025 12.4226 12.7846 
6 1 11.4458 11.4851 12.7226 
ITEM: TIMESTEP
56
ITEM: NUMBER OF ATOMS
6
ITEM: BOX BOUNDS pp pp pp
0 18.6206
0 18.6206
0 18.6206
ITEM: ATOMS id type xs ys zs
1 1 9.90876 8.94441 13.4771 
2 1 9.84242 8.66428 14.4429 
3 1 10.2823 9.86201 13.4262 
4 1 10.6713 11.7688 13.2876 
5 1 10.0927 12.4223 12.7899 
6 1 11.4395 11.4907 12.7151 
ITEM: TIMESTEP
57
ITEM: NUMBER OF ATOMS
6
ITEM: BOX BOUNDS pp pp pp
0 18.6206
0 18.6206
0 18.6206
ITEM: ATOMS id type xs ys zs
1 1 9.90993 8.93933 13.4758 
2 1 9.82562 8.66212 14.441 
3 1 10.2912 9.85396 13.4288 
4 1 10.6716 11.7741 13.289 
5 1 10.0825 12.4215 12.7958 
6 1 11.4337 11.4976 12.7076 
ITEM: TIMESTEP
58
ITEM: NUMBER OF ATOMS
6
ITEM: BOX BOUNDS pp pp pp
0 18.6206
0 18.6206
0 18.6206
ITEM: ATOMS id type xs ys zs
1 1 9.91118 8.93417 13.4745 
2 1 9.80857 8.65982 14.4388 
3 1 10.2974 9.84693 13.432 
4 1 10.6721 11.7794 13.2903 
5 1 10.0717 12.4202 12.802 
6 1 11.4285 11.5058 12.7002 
ITEM: TIMESTEP
59
ITEM: NUMBER OF ATOMS
6
ITEM: BOX BOUNDS pp pp pp
0 18.6206
0 18.6206
0 18.6206
ITEM: ATOMS id type xs ys zs
1 1 9.91251 8.92894 13.4732 
2 1 9.79128 8.65732 14.4361 
3 1 10.301 9.84096 13.4356 
4 1 10.6726 11.7847 13.2916 
5 1 10.0605 12.4184 12.8087 
6 1 11.4237 11.5154 12.6927 
ITEM: TIMESTEP
60
ITEM: NUMBER OF ATOMS
6
ITEM: BOX BOUNDS pp pp pp
0 18.6206
0 18.6206
0 18.6206
ITEM: ATOMS id type xs ys zs
1 1 9.91391 8.92365 13.472 
2 1 9.77374 8.65459 14.433 
3 1 10.302 9.83602 13.4396 
4 1 10.6732 11.7899 13.2928 
5 1 10.0488 12.4161 12.8159 
6 1 11.4194 11.5263 12.6853 
ITEM: TIMESTEP
61
ITEM: NUMBER OF ATOMS
6
ITEM: BOX BOUNDS pp pp pp
0 18.6206
0 18.6206
0 18.6206
ITEM: ATOMS id type xs ys zs
1 1 9.91539 8.91831 13.4708 
2 1 9.75596 8.65155 14.4295 
3 1 10.3006 9.8321 13.4438 
4 1 10.674 11.7951 13.2939 
5 1 10.0368 12.4133 12.8235 
6 1 11.4155 11.5385 12.6778 
ITEM: TIMESTEP
62
ITEM: NUMBER OF ATOMS
6
ITEM: BOX BOUNDS pp pp pp
0 18.6206
0 18.6206
0 18.6206
ITEM: ATOMS id type xs ys zs
1 1 9.91695 8.91293 13.4696 
2 1 9.73794 8.64817 14.4254 
3 1 10.2967 9.82913 13.4482 
4 1 10.6748 11.8003 13.295 
5 1 10.0245 12.41 12.8315 
6 1 11.412 11.5519 12.6704 
ITEM: TIMESTEP
63
ITEM: NUMBER OF ATOMS
6
ITEM: BOX BOUNDS pp pp pp
0 18.6206
0 18.6206
0 18.6206
ITEM: ATOMS id type xs ys zs
1 1 9.91858 8.90753 13.4685 
2 1 9.71969 8.6444 14.4208 
3 1 10.2906 9.82702 13.4527 
4 1 10.6757 11.8054 13.296 
5 1 10.012 12.4061 12.8399 
6 1 11.4088 11.5666 12.6629 
ITEM: TIMESTEP
64
ITEM: NUMBER OF ATOMS
6
ITEM: BOX BOUNDS pp pp pp
0 18.6206
0 18.6206
0 18.6206
ITEM: ATOMS id type xs ys zs
1 1 9.92028 8.90211 13.4675 
2 1 9.70124 8.6402 14.4157 
3 1 10.2823 9.82565 13.4572 
4 1 10.6767 11.8104 13.297 
5 1 9.99926 12.4017 12.8488 
6 1 11.406 11.5824 12.6555 
ITEM: TIMESTEP
65
ITEM: NUMBER OF ATOMS
6
ITEM: BOX BOUNDS pp pp pp
0 18.6206
0 18.6206
0 18.6206
ITEM: ATOMS id type xs ys zs
1 1 9.92205 8.89671 13.4666 
2 1 9.68262 8.63552 14.41 
3 1 10.2721 9.82491 13.4615 
4 1 10.6777 11.8154 13.2979 
5 1 9.98645 12.3968 12.8579 
6 1 11.4033 11.5994 12.6482 
ITEM: TIMESTEP
66
ITEM: NUMBER OF ATOMS
6
ITEM: BOX BOUNDS pp pp pp
0 18.6206
0 18.6206
0 18.6206
ITEM: ATOMS id type xs ys zs
1 1 9.92389 8.89134 13.4657 
2 1 9.66385 8.63034 14.4037 
3 1 10.2601 9.82465 13.4657 
4 1 10.6787 11.8203 13.2988 
5 1 9.97362 12.3914 12.8675 
6 1 11.4008 11.6173 12.6409 
ITEM: TIMESTEP
67
ITEM: NUMBER OF ATOMS
6
ITEM: BOX BOUNDS pp pp pp
0 18.6206
0 18.6206
0 18.6206
ITEM: ATOMS id type xs ys zs
1 1 9.92578 8.886 13.4649 
2 1 9.64499 8.62463 14.3968 
3 1 10.2465 9.82474 13.4696 
4 1 10.6799 11.8252 13.2996 
5 1 9.96083 12.3856 12.8773 
6 1 11.3984 11.6363 12.6338 
ITEM: TIMESTEP
68
ITEM: NUMBER OF ATOMS
6
ITEM: BOX BOUNDS pp pp pp
0 18.6206
0 18.6206
0 18.6206
ITEM: ATOMS id type xs ys zs
1 1 9.92772 8.88073 13.4641 
2 1 9.62607 8.61837 14.3893 
3 1 10.2315 9.82505 13.4732 
4 1 10.681 11.83 13.3004 
5 1 9.94817 12.3794 12.8875 
6 1 11.396 11.6561 12.6267 
ITEM: TIMESTEP
69
ITEM: NUMBER OF ATOMS
6
ITEM: BOX BOUNDS pp pp pp
0 18.6206
0 18.6206
0 18.6206
ITEM: ATOMS id type xs ys zs
1 1 9.9297 8.87552 13.4635 
2 1 9.60716 8.61155 14.3811 
3 1 10.2154 9.82543 13.4764 
4 1 10.6822 11.8347 13.3012 
5 1 9.93571 12.3728 12.8979 
6 1 11.3936 11.6768 12.6198 
ITEM: TIMESTEP
70
ITEM: NUMBER OF ATOMS
6
ITEM: BOX BOUNDS pp pp pp
0 18.6206
0 18.6206
0 18.6206
ITEM: ATOMS id type xs ys zs
1 1 9.93171 8.87041 13.4629 
2 1 9.58831 8.60419 14.3722 
3 1 10.1984 9.82576 13.4793 
4 1 10.6833 11.8393 13.3019 
5 1 9.9235 12.3659 12.9085 
6 1 11.3912 11.6981 12.6132 
ITEM: TIMESTEP
71
ITEM: NUMBER OF ATOMS
6
ITEM: BOX BOUNDS pp pp pp
0 18.6206
0 18.6206
0 18.6206
ITEM: ATOMS id type xs ys zs
1 1 9.93374 8.86538 13.4624 
2 1 9.56959 8.59629 14.3628 
3 1 10.1809 9.82593 13.4818 
4 1 10.6845 11.8439 13.3025 
5 1 9.91163 12.3589 12.9192 
6 1 11.3887 11.7201 12.6067 
ITEM: TIMESTEP
72
ITEM: NUMBER OF ATOMS
6
ITEM: BOX BOUNDS pp pp pp
0 18.6206
0 18.6206
0 18.6206
ITEM: ATOMS id type xs ys zs
1 1 9.93577 8.86047 13.462 
2 1 9.55105 8.58788 14.3527 
3 1 10.1631 9.82584 13.484 
4 1 10.6856 11.8484 13.3032 
5 1 9.90015 12.3517 12.9301 
6 1 11.386 11.7426 12.6006 
ITEM: TIMESTEP
73
ITEM: NUMBER OF ATOMS
6
ITEM: BOX BOUNDS pp pp pp
0 18.6206
0 18.6206
0 18.6206
ITEM: ATOMS id type xs ys zs
1 1 9.9378 8.85566 13.4616 
2 1 9.53276 8.57902 14.342 
3 1 10.1453 9.82542 13.4858 
4 1 10.6868 11.8528 13.3037 
5 1 9.88911 12.3444 12.9411 
6 1 11.3832 11.7655 12.5947 
ITEM: TIMESTEP
74
ITEM: NUMBER OF ATOMS
6
ITEM: BOX BOUNDS pp pp pp
0 18.6206
0 18.6206
0 18.6206
ITEM: ATOMS id type xs ys zs
1 1 9.9398 8.85096 13.4613 
2 1 9.51477 8.56975 14.3308 
3 1 10.1279 9.82464 13.4875 
4 1 10.6878 11.8571 13.3043 
5 1 9.87855 12.3372 12.9522 
6 1 11.3802 11.7888 12.5892 
ITEM: TIMESTEP
75
ITEM: NUMBER OF ATOMS
6
ITEM: BOX BOUNDS pp pp pp
0 18.6206
0 18.6206
0 18.6206
ITEM: ATOMS id type xs ys zs
1 1 9.94178 8.84637 13.461 
2 1 9.49712 8.56015 14.319 
3 1 10.1111 9.82344 13.4889 
4 1 10.6889 11.8614 13.3048 
5 1 9.86852 12.3301 12.9633 
6 1 11.3769 11.8123 12.5841 
ITEM: TIMESTEP
76
ITEM: NUMBER OF ATOMS
6
ITEM: BOX BOUNDS pp pp pp
0 18.6206
0 18.6206
0 18.6206
ITEM: ATOMS id type xs ys zs
1 1 9.94371 8.84188 13.4608 
2 1 9.47984 8.55026 14.3067 
3 1 10.0951 9.82184 13.4904 
4 1 10.6898 11.8655 13.3053 
5 1 9.85903 12.3233 12.9744 
6 1 11.3735 11.8359 12.5794 
ITEM: TIMESTEP
77
ITEM: NUMBER OF ATOMS
6
ITEM: BOX BOUNDS pp pp pp
0 18.6206
0 18.6206
0 18.6206
ITEM: ATOMS id type xs ys zs
1 1 9.94559 8.83749 13.4607 
2 1 9.46293 8.54019 14.2939 
3 1 10.0802 9.81983 13.4919 
4 1 10.6908 11.8696 13.3058 
5 1 9.85009 12.3169 12.9855 
6 1 11.3699 11.8596 12.5751 
ITEM: TIMESTEP
78
ITEM: NUMBER OF ATOMS
6
ITEM: BOX BOUNDS pp pp pp
0 18.6206
0 18.6206
0 18.6206
ITEM: ATOMS id type xs ys zs
1 1 9.94742 8.83318 13.4605 
2 1 9.44641 8.53 14.2807 
3 1 10.0666 9.81746 13.4936 
4 1 10.6916 11.8736 13.3062 
5 1 9.84172 12.3108 12.9965 
6 1 11.3661 11.8833 12.5712 
ITEM: TIMESTEP
79
ITEM: NUMBER OF ATOMS
6
ITEM: BOX BOUNDS pp pp pp
0 18.6206
0 18.6206
0 18.6206
ITEM: ATOMS id type xs ys zs
1 1 9.94919 8.82895 13.4604 
2 1 9.4303 8.51977 14.2671 
3 1 10.0544 9.81475 13.4956 
4 1 10.6924 11.8775 13.3066 
5 1 9.83391 12.3053 13.0076 
6 1 11.362 11.907 12.5677 
ITEM: TIMESTEP
80
ITEM: NUMBER OF ATOMS
6
ITEM: BOX BOUNDS pp pp pp
0 18.6206
0 18.6206
0 18.6206
ITEM: ATOMS id type xs ys zs
1 1 9.9509 8.82479 13.4602 
2 1 9.41458 8.5096 14.2532 
3 1 10.0437 9.81174 13.4979 
4 1 10.693 11.8813 13.307 
5 1 9.82664 12.3003 13.0185 
6 1 11.3578 11.9304 12.5647 
ITEM: TIMESTEP
81
ITEM: NUMBER OF ATOMS
6
ITEM: BOX BOUNDS pp pp pp
0 18.6206
0 18.6206
0 18.6206
ITEM: ATOMS id type xs ys zs
1 1 9.95255 8.82068 13.4601 
2 1 9.39926 8.49956 14.2389 
3 1 10.0345 9.80848 13.5006 
4 1 10.6936 11.8851 13.3073 
5 1 9.81991 12.296 13.0295 
6 1 11.3535 11.9537 12.5622 
ITEM: TIMESTEP
82
ITEM: NUMBER OF ATOMS
6
ITEM: BOX BOUNDS pp pp pp
0 18.6206
0 18.6206
0 18.6206
ITEM: ATOMS id type xs ys zs
1 1 9.95414 8.81662 13.46 
2 1 9.38433 8.48973 14.2243 
3 1 10.0268 9.80499 13.5038 
4 1 10.6941 11.8887 13.3076 
5 1 9.8137 12.2922 13.0404 
6 1 11.349 11.9767 12.5601 
ITEM: TIMESTEP
83
ITEM: NUMBER OF ATOMS
6
ITEM: BOX BOUNDS pp pp pp
0 18.6206
0 18.6206
0 18.6206
ITEM: ATOMS id type xs ys zs
1 1 9.95567 8.81259 13.4598 
2 1 9.36978 8.4802 14.2095 
3 1 10.0208 9.80132 13.5076 
4 1 10.6946 11.8924 13.3079 
5 1 9.80798 12.2892 13.0512 
6 1 11.3444 11.9994 12.5585 
ITEM: TIMESTEP
84
ITEM: NUMBER OF ATOMS
6
ITEM: BOX BOUNDS pp pp pp
0 18.6206
0 18.6206
0 18.6206
ITEM: ATOMS id type xs ys zs
1 1 9.95714 8.80861 13.4597 
2 1 9.35559 8.47102 14.1944 
3 1 10.0163 9.79748 13.5119 
4 1 10.6949 11.8959 13.3081 
5 1 9.80273 12.2869 13.062 
6 1 11.3397 12.0218 12.5573 
ITEM: TIMESTEP
85
ITEM: NUMBER OF ATOMS
6
ITEM: BOX BOUNDS pp pp pp
0 18.6206
0 18.6206
0 18.6206
ITEM: ATOMS id type xs ys zs
1 1 9.95855 8.80462 13.4595 
2 1 9.34178 8.46246 14.1793 
3 1 10.0134 9.79347 13.5167 
4 1 10.6951 11.8994 13.3083 
5 1 9.79794 12.2853 13.0727 
6 1 11.335 12.0437 12.5566 
ITEM: TIMESTEP
86
ITEM: NUMBER OF ATOMS
6
ITEM: BOX BOUNDS pp pp pp
0 18.6206
0 18.6206
0 18.6206
ITEM: ATOMS id type xs ys zs
1 1 9.95991 8.80064 13.4592 
2 1 9.32831 8.45457 14.1642 
3 1 10.0122 9.7893 13.5219 
4 1 10.6953 11.9028 13.3085 
5 1 9.79358 12.2845 13.0834 
6 1 11.3302 12.0651 12.5563 
ITEM: TIMESTEP
87
ITEM: NUMBER OF ATOMS
6
ITEM: BOX BOUNDS pp pp pp
0 18.6206
0 18.6206
0 18.6206
ITEM: ATOMS id type xs ys zs
1 1 9.96122 8.79666 13.459 
2 1 9.31518 8.44741 14.1492 
3 1 10.0126 9.78498 13.5276 
4 1 10.6953 11.9062 13.3087 
5 1 9.78964 12.2845 13.094 
6 1 11.3255 12.0859 12.5565 
ITEM: TIMESTEP
88
ITEM: NUMBER OF ATOMS
6
ITEM: BOX BOUNDS pp pp pp
0 18.6206
0 18.6206
0 18.6206
ITEM: ATOMS id type xs ys zs
1 1 9.96249 8.79268 13.4587 
2 1 9.30235 8.44104 14.1342 
3 1 10.0144 9.78049 13.5336 
4 1 10.6953 11.9096 13.3088 
5 1 9.78609 12.2852 13.1046 
6 1 11.3208 12.1063 12.557 
ITEM: TIMESTEP
89
ITEM: NUMBER OF ATOMS
6
ITEM: BOX BOUNDS pp pp pp
0 18.6206
0 18.6206
0 18.6206
ITEM: ATOMS id type xs ys zs
1 1 9.96371 8.78868 13.4583 
2 1 9.28982 8.4355 14.1193 
3 1 10.0177 9.77585 13.5401 
4 1 10.6951 11.9129 13.309 
5 1 9.78291 12.2867 13.1151 
6 1 11.3162 12.126 12.5579 
ITEM: TIMESTEP
90
ITEM: NUMBER OF ATOMS
6
ITEM: BOX BOUNDS pp pp pp
0 18.6206
0 18.6206
0 18.6206
ITEM: ATOMS id type xs ys zs
1 1 9.9649 8.78468 13.458 
2 1 9.27756 8.43082 14.1045 
3 1 10.0224 9.77103 13.5469 
4 1 10.6948 11.9161 13.3091 
5 1 9.78009 12.2889 13.1256 
6 1 11.3117 12.1451 12.5592 
ITEM: TIMESTEP
91
ITEM: NUMBER OF ATOMS
6
ITEM: BOX BOUNDS pp pp pp
0 18.6206
0 18.6206
0 18.6206
ITEM: ATOMS id type xs ys zs
1 1 9.96607 8.78068 13.4575 
2 1 9.26557 8.42704 14.0899 
3 1 10.0283 9.76602 13.5541 
4 1 10.6945 11.9193 13.3093 
5 1 9.77761 12.2918 13.1361 
6 1 11.3073 12.1636 12.5609 
ITEM: TIMESTEP
92
ITEM: NUMBER OF ATOMS
6
ITEM: BOX BOUNDS pp pp pp
0 18.6206
0 18.6206
0 18.6206
ITEM: ATOMS id type xs ys zs
1 1 9.9672 8.77667 13.4571 
2 1 9.25384 8.42418 14.0756 
3 1 10.0355 9.7608 13.5615 
4 1 10.6941 11.9225 13.3094 
5 1 9.77546 12.2954 13.1466 
6 1 11.303 12.1815 12.5628 
ITEM: TIMESTEP
93
ITEM: NUMBER OF ATOMS
6
ITEM: BOX BOUNDS pp pp pp
0 18.6206
0 18.6206
0 18.6206
ITEM: ATOMS id type xs ys zs
1 1 9.96832 8.77265 13.4565 
2 1 9.24237 8.42226 14.0614 
3 1 10.0437 9.75538 13.5691 
4 1 10.6935 11.9256 13.3095 
5 1 9.77361 12.2997 13.1571 
6 1 11.2989 12.1987 12.5651 
ITEM: TIMESTEP
94
ITEM: NUMBER OF ATOMS
6
ITEM: BOX BOUNDS pp pp pp
0 18.6206
0 18.6206
0 18.6206
ITEM: ATOMS id type xs ys zs
1 1 9.96943 8.76863 13.456 
2 1 9.23114 8.42128 14.0476 
3 1 10.053 9.74972 13.5768 
4 1 10.6929 11.9287 13.3097 
5 1 9.77207 12.3046 13.1675 
6 1 11.295 12.2152 12.5676 
ITEM: TIMESTEP
95
ITEM: NUMBER OF ATOMS
6
ITEM: BOX BOUNDS pp pp pp
0 18.6206
0 18.6206
0 18.6206
ITEM: ATOMS id type xs ys zs
1 1 9.97052 8.76461 13.4554 
2 1 9.22018 8.42124 14.034 
3 1 10.063 9.74384 13.5844 
4 1 10.6922 11.9318 13.3098 
5 1 9.77081 12.3101 13.1779 
6 1 11.2913 12.231 12.5703 
ITEM: TIMESTEP
96
ITEM: NUMBER OF ATOMS
6
ITEM: BOX BOUNDS pp pp pp
0 18.6206
0 18.6206
0 18.6206
ITEM: ATOMS id type xs ys zs
1 1 9.97161 8.76058 13.4547 
2 1 9.20947 8.42215 14.0207 
3 1 10.0739 9.73772 13.592 
4 1 10.6913 11.9348 13.3099 
5 1 9.76983 12.3161 13.1883 
6 1 11.2878 12.2461 12.5733 
ITEM: TIMESTEP
97
ITEM: NUMBER OF ATOMS
6
ITEM: BOX BOUNDS pp pp pp
0 18.6206
0 18.6206
0 18.6206
ITEM: ATOMS id type xs ys zs
1 1 9.97269 8.75655 13.4541 
2 1 9.19902 8.424 14.0077 
3 1 10.0855 9.73138 13.5993 
4 1 10.6904 11.9378 13.3101 
5 1 9.76912 12.3227 13.1986 
6 1 11.2845 12.2605 12.5765 
ITEM: TIMESTEP
98
ITEM: NUMBER OF ATOMS
6
ITEM: BOX BOUNDS pp pp pp
0 18.6206
0 18.6206
0 18.6206
ITEM: ATOMS id type xs ys zs
1 1 9.97378 8.75252 13.4534 
2 1 9.18884 8.42677 13.9951 
3 1 10.0976 9.72481 13.6064 
4 1 10.6895 11.9408 13.3103 
5 1 9.76867 12.3297 13.2089 
6 1 11.2814 12.2743 12.5798 
ITEM: TIMESTEP
99
ITEM: NUMBER OF ATOMS
6
ITEM: BOX BOUNDS pp pp pp
0 18.6206
0 18.6206
0 18.6206
ITEM: ATOMS id type xs ys zs
1 1 9.97486 8.74849 13.4527 
2 1 9.17893 8.43044 13.9828 
3 1 10.1102 9.71804 13.6132 
4 1 10.6884 11.9437 13.3105 
5 1 9.76847 12.3371 13.2192 
6 1 11.2786 12.2873 12.5833 
ITEM: TIMESTEP
100
ITEM: NUMBER OF ATOMS
6
ITEM: BOX BOUNDS pp pp pp
0 18.6206
0 18.6206
0 18.6206
ITEM: ATOMS id type xs ys zs