ITEM: TIMESTEP
0
ITEM: NUMBER OF ATOMS
2
ITEM: BOX BOUNDS pp pp pp
0.0000000000000000e+00 1.8620600000000000e+01
0.0000000000000000e+00 1.8620600000000000e+01
0.0000000000000000e+00 1.8620600000000000e+01
ITEM: ATOMS id type xs ys zs
1 1 0.528823 0.487854 0.731369
2 1 0.5779 0.627571 0.705535
ITEM: TIMESTEP
1
ITEM: NUMBER OF ATOMS
2
ITEM: BOX BOUNDS pp pp pp
0.0000000000000000e+00 1.8620600000000000e+01
0.0000000000000000e+00 1.8620600000000000e+01
0.0000000000000000e+00 1.8620600000000000e+01
ITEM: ATOMS id type xs ys zs
1 1 0.528459 0.487573 0.731509
2 1 0.578264 0.627851 0.705395
ITEM: TIMESTEP
2
ITEM: NUMBER OF ATOMS
2
ITEM: BOX BOUNDS pp pp pp
0.0000000000000000e+00 1.8620600000000000e+01
0.0000000000000000e+00 1.8620600000000000e+01
0.0000000000000000e+00 1.8620600000000000e+01
ITEM: ATOMS id type xs ys zs
1 1 0.527768 0.486821 0.731771
2 1 0.578954 0.628604 0.705133
ITEM: TIMESTEP
3
ITEM: NUMBER OF ATOMS
2
ITEM: BOX BOUNDS pp pp pp
0.0000000000000000e+00 1.8620600000000000e+01
0.0000000000000000e+00 1.8620600000000000e+01
0.0000000000000000e+00 1.8620600000000000e+01
ITEM: ATOMS id type xs ys zs
1 1 0.527159 0.485672 0.732045
2 1 0.579563 0.629752 0.704858
ITEM: TIMESTEP
4
ITEM: NUMBER OF ATOMS
2
ITEM: BOX BOUNDS pp pp pp
0.0000000000000000e+00 1.8620600000000000e+01
0.0000000000000000e+00 1.8620600000000000e+01
0.0000000000000000e+00 1.8620600000000000e+01
ITEM: ATOMS id type xs ys zs
1 1 0.526771 0.484117 0.732269
2 1 0.579952 0.631307 0.704635
ITEM: TIMESTEP
5
ITEM: NUMBER OF ATOMS
2
ITEM: BOX BOUNDS pp pp pp
0.0000000000000000e+00 1.8620600000000000e+01
0.0000000000000000e+00 1.8620600000000000e+01
0.0000000000000000e+00 1.8620600000000000e+01
ITEM: ATOMS id type xs ys zs
1 1 0.526554 0.482509 0.732426
2 1 0.580169 0.632916 0.704477
ITEM: TIMESTEP
6
ITEM: NUMBER OF ATOMS
2
ITEM: BOX BOUNDS pp pp pp
0.0000000000000000e+00 1.8620600000000000e+01
0.0000000000000000e+00 1.8620600000000000e+01
0.0000000000000000e+00 1.8620600000000000e+01
ITEM: ATOMS id type xs ys zs
1 1 0.526073 0.481069 0.732637
2 1 0.58065 0.634355 0.704267
ITEM: TIMESTEP
7
ITEM: NUMBER OF ATOMS
2
ITEM: BOX BOUNDS pp pp pp
0.0000000000000000e+00 1.8620600000000000e+01
0.0000000000000000e+00 1.8620600000000000e+01
0.0000000000000000e+00 1.8620600000000000e+01
ITEM: ATOMS id type xs ys zs
1 1 0.525323 0.479884 0.732909
2 1 0.5814 0.63554 0.703994
ITEM: TIMESTEP
8
ITEM: NUMBER OF ATOMS
2
ITEM: BOX BOUNDS pp pp pp
0.0000000000000000e+00 1.8620600000000000e+01
0.0000000000000000e+00 1.8620600000000000e+01
0.0000000000000000e+00 1.8620600000000000e+01
ITEM: ATOMS id type xs ys zs
1 1 0.524609 0.479009 0.733178
2 1 0.582113 0.636416 0.703726
ITEM: TIMESTEP
9
ITEM: NUMBER OF ATOMS
2
ITEM: BOX BOUNDS pp pp pp
0.0000000000000000e+00 1.8620600000000000e+01
0.0000000000000000e+00 1.8620600000000000e+01
0.0000000000000000e+00 1.8620600000000000e+01
ITEM: ATOMS id type xs ys zs
1 1 0.524266 0.478261 0.733464
2 1 0.582457 0.637163 0.703439
ITEM: TIMESTEP
10
ITEM: NUMBER OF ATOMS
2
ITEM: BOX BOUNDS pp pp pp
0.0000000000000000e+00 1.8620600000000000e+01
0.0000000000000000e+00 1.8620600000000000e+01
0.0000000000000000e+00 1.8620600000000000e+01
ITEM: ATOMS id type xs ys zs
1 1 0.52429 0.477673 0.733718
2 1 0.582433 0.637752 0.703186
